 Entering Gaussian System, Link 0=g16
 Initial command:
 /usr/local/g16/l1.exe "/tmp/Gau-3151.inp" -scrdir="/tmp/"
 Entering Link 1 = /usr/local/g16/l1.exe PID=      3152.
  
 Copyright (c) 1988-2019, Gaussian, Inc.  All Rights Reserved.
  
 This is part of the Gaussian(R) 16 program.  It is based on
 the Gaussian(R) 09 system (copyright 2009, Gaussian, Inc.),
 the Gaussian(R) 03 system (copyright 2003, Gaussian, Inc.),
 the Gaussian(R) 98 system (copyright 1998, Gaussian, Inc.),
 the Gaussian(R) 94 system (copyright 1995, Gaussian, Inc.),
 the Gaussian 92(TM) system (copyright 1992, Gaussian, Inc.),
 the Gaussian 90(TM) system (copyright 1990, Gaussian, Inc.),
 the Gaussian 88(TM) system (copyright 1988, Gaussian, Inc.),
 the Gaussian 86(TM) system (copyright 1986, Carnegie Mellon
 University), and the Gaussian 82(TM) system (copyright 1983,
 Carnegie Mellon University). Gaussian is a federally registered
 trademark of Gaussian, Inc.
  
 This software contains proprietary and confidential information,
 including trade secrets, belonging to Gaussian, Inc.
  
 This software is provided under written license and may be
 used, copied, transmitted, or stored only in accord with that
 written license.
  
 The following legend is applicable only to US Government
 contracts under FAR:
  
                    RESTRICTED RIGHTS LEGEND
  
 Use, reproduction and disclosure by the US Government is
 subject to restrictions as set forth in subparagraphs (a)
 and (c) of the Commercial Computer Software - Restricted
 Rights clause in FAR 52.227-19.
  
 Gaussian, Inc.
 340 Quinnipiac St., Bldg. 40, Wallingford CT 06492
  
  
 ---------------------------------------------------------------
 Warning -- This program may not be used in any manner that
 competes with the business of Gaussian, Inc. or will provide
 assistance to any competitor of Gaussian, Inc.  The licensee
 of this program is prohibited from giving any competitor of
 Gaussian, Inc. access to this program.  By using this program,
 the user acknowledges that Gaussian, Inc. is engaged in the
 business of creating and licensing software in the field of
 computational chemistry and represents and warrants to the
 licensee that it is not a competitor of Gaussian, Inc. and that
 it will not use this program in any manner prohibited above.
 ---------------------------------------------------------------
  

 Cite this work as:
 Gaussian 16, Revision C.01,
 M. J. Frisch, G. W. Trucks, H. B. Schlegel, G. E. Scuseria, 
 M. A. Robb, J. R. Cheeseman, G. Scalmani, V. Barone, 
 G. A. Petersson, H. Nakatsuji, X. Li, M. Caricato, A. V. Marenich, 
 J. Bloino, B. G. Janesko, R. Gomperts, B. Mennucci, H. P. Hratchian, 
 J. V. Ortiz, A. F. Izmaylov, J. L. Sonnenberg, D. Williams-Young, 
 F. Ding, F. Lipparini, F. Egidi, J. Goings, B. Peng, A. Petrone, 
 T. Henderson, D. Ranasinghe, V. G. Zakrzewski, J. Gao, N. Rega, 
 G. Zheng, W. Liang, M. Hada, M. Ehara, K. Toyota, R. Fukuda, 
 J. Hasegawa, M. Ishida, T. Nakajima, Y. Honda, O. Kitao, H. Nakai, 
 T. Vreven, K. Throssell, J. A. Montgomery, Jr., J. E. Peralta, 
 F. Ogliaro, M. J. Bearpark, J. J. Heyd, E. N. Brothers, K. N. Kudin, 
 V. N. Staroverov, T. A. Keith, R. Kobayashi, J. Normand, 
 K. Raghavachari, A. P. Rendell, J. C. Burant, S. S. Iyengar, 
 J. Tomasi, M. Cossi, J. M. Millam, M. Klene, C. Adamo, R. Cammi, 
 J. W. Ochterski, R. L. Martin, K. Morokuma, O. Farkas, 
 J. B. Foresman, and D. J. Fox, Gaussian, Inc., Wallingford CT, 2019.
 
 ******************************************
 Gaussian 16:  ES64L-G16RevC.01  3-Jul-2019
                14-Apr-2024 
 ******************************************
 %mem=8GB
 %nprocshared=2
 Will use up to    2 processors via shared memory.
 %chk=ethanol-opt.chk
 ---------------------------------------
 #p opt B3LYP/6-31G(d) geom=connectivity
 ---------------------------------------
 1/18=20,19=15,26=3,38=1,57=2/1,3;
 2/9=110,12=2,17=6,18=5,40=1/2;
 3/5=1,6=6,7=1,11=2,25=1,30=1,71=1,74=-5/1,2,3;
 4//1;
 5/5=2,38=5/2;
 6/7=2,8=2,9=2,10=2,28=1/1;
 7//1,2,3,16;
 1/18=20,19=15,26=3/3(2);
 2/9=110/2;
 99//99;
 2/9=110/2;
 3/5=1,6=6,7=1,11=2,25=1,30=1,71=1,74=-5/1,2,3;
 4/5=5,16=3,69=1/1;
 5/5=2,38=5/2;
 7//1,2,3,16;
 1/18=20,19=15,26=3/3(-5);
 2/9=110/2;
 6/7=2,8=2,9=2,10=2,19=2,28=1/1;
 99/9=1/99;
 Leave Link    1 at Sun Apr 14 13:00:48 2024, MaxMem=  1073741824 cpu:               0.0 elap:               0.0
 (Enter /usr/local/g16/l101.exe)
 ---
 opt
 ---
 Symbolic Z-matrix:
 Charge =  0 Multiplicity = 1
 C
 C                    1    B1
 H                    2    B2       1    A1
 H                    2    B3       1    A2       3    D1       0
 H                    2    B4       1    A3       3    D2       0
 O                    1    B5       2    A4       3    D3       0
 H                    6    B6       1    A5       2    D4       0
 H                    1    B7       2    A6       3    D5       0
 H                    1    B8       2    A7       3    D6       0
       Variables:
  B1                    1.53181                  
  B2                    1.11447                  
  B3                    1.11447                  
  B4                    1.11456                  
  B5                    1.40844                  
  B6                    0.94229                  
  B7                    1.11669                  
  B8                    1.11669                  
  A1                  111.06258                  
  A2                  111.06258                  
  A3                  110.82696                  
  A4                  109.44049                  
  A5                  107.4828                   
  A6                  111.27979                  
  A7                  111.27979                  
  D1                  120.10712                  
  D2                 -119.94644                  
  D3                  -60.05356                  
  D4                 -180.                       
  D5                   59.15401                  
  D6                 -179.26113                  
 
 ITRead=  0  0  0  0  0  0  0  0  0
 MicOpt= -1 -1 -1 -1 -1 -1 -1 -1 -1
 NAtoms=      9 NQM=        9 NQMF=       0 NMMI=      0 NMMIF=      0
                NMic=       0 NMicF=      0.
                    Isotopes and Nuclear Properties:
 (Nuclear quadrupole moments (NQMom) in fm**2, nuclear magnetic moments (NMagM)
  in nuclear magnetons)

  Atom         1           2           3           4           5           6           7           8           9
 IAtWgt=          12          12           1           1           1          16           1           1           1
 AtmWgt=  12.0000000  12.0000000   1.0078250   1.0078250   1.0078250  15.9949146   1.0078250   1.0078250   1.0078250
 NucSpn=           0           0           1           1           1           0           1           1           1
 AtZEff=  -0.0000000  -0.0000000  -0.0000000  -0.0000000  -0.0000000  -0.0000000  -0.0000000  -0.0000000  -0.0000000
 NQMom=    0.0000000   0.0000000   0.0000000   0.0000000   0.0000000   0.0000000   0.0000000   0.0000000   0.0000000
 NMagM=    0.0000000   0.0000000   2.7928460   2.7928460   2.7928460   0.0000000   2.7928460   2.7928460   2.7928460
 AtZNuc=   6.0000000   6.0000000   1.0000000   1.0000000   1.0000000   8.0000000   1.0000000   1.0000000   1.0000000
 Leave Link  101 at Sun Apr 14 13:00:48 2024, MaxMem=  1073741824 cpu:               0.2 elap:               0.1
 (Enter /usr/local/g16/l103.exe)

 GradGradGradGradGradGradGradGradGradGradGradGradGradGradGradGradGradGrad
 Berny optimization.
 Initialization pass.
                           ----------------------------
                           !    Initial Parameters    !
                           ! (Angstroms and Degrees)  !
 --------------------------                            --------------------------
 ! Name  Definition              Value          Derivative Info.                !
 --------------------------------------------------------------------------------
 ! R1    R(1,2)                  1.5318         estimate D2E/DX2                !
 ! R2    R(1,6)                  1.4084         estimate D2E/DX2                !
 ! R3    R(1,8)                  1.1167         estimate D2E/DX2                !
 ! R4    R(1,9)                  1.1167         estimate D2E/DX2                !
 ! R5    R(2,3)                  1.1145         estimate D2E/DX2                !
 ! R6    R(2,4)                  1.1145         estimate D2E/DX2                !
 ! R7    R(2,5)                  1.1146         estimate D2E/DX2                !
 ! R8    R(6,7)                  0.9423         estimate D2E/DX2                !
 ! A1    A(2,1,6)              109.4405         estimate D2E/DX2                !
 ! A2    A(2,1,8)              111.2798         estimate D2E/DX2                !
 ! A3    A(2,1,9)              111.2798         estimate D2E/DX2                !
 ! A4    A(6,1,8)              107.9381         estimate D2E/DX2                !
 ! A5    A(6,1,9)              107.9381         estimate D2E/DX2                !
 ! A6    A(8,1,9)              108.8482         estimate D2E/DX2                !
 ! A7    A(1,2,3)              111.0626         estimate D2E/DX2                !
 ! A8    A(1,2,4)              111.0626         estimate D2E/DX2                !
 ! A9    A(1,2,5)              110.827          estimate D2E/DX2                !
 ! A10   A(3,2,4)              107.9189         estimate D2E/DX2                !
 ! A11   A(3,2,5)              107.9159         estimate D2E/DX2                !
 ! A12   A(4,2,5)              107.9159         estimate D2E/DX2                !
 ! A13   A(1,6,7)              107.4828         estimate D2E/DX2                !
 ! D1    D(6,1,2,3)            -60.0536         estimate D2E/DX2                !
 ! D2    D(6,1,2,4)             60.0536         estimate D2E/DX2                !
 ! D3    D(6,1,2,5)            180.0            estimate D2E/DX2                !
 ! D4    D(8,1,2,3)             59.154          estimate D2E/DX2                !
 ! D5    D(8,1,2,4)            179.2611         estimate D2E/DX2                !
 ! D6    D(8,1,2,5)            -60.7924         estimate D2E/DX2                !
 ! D7    D(9,1,2,3)           -179.2611         estimate D2E/DX2                !
 ! D8    D(9,1,2,4)            -59.154          estimate D2E/DX2                !
 ! D9    D(9,1,2,5)             60.7924         estimate D2E/DX2                !
 ! D10   D(2,1,6,7)            180.0            estimate D2E/DX2                !
 ! D11   D(8,1,6,7)             58.749          estimate D2E/DX2                !
 ! D12   D(9,1,6,7)            -58.749          estimate D2E/DX2                !
 --------------------------------------------------------------------------------
 Trust Radius=3.00D-01 FncErr=1.00D-07 GrdErr=1.00D-06 EigMax=2.50D+02 EigMin=1.00D-04
 Number of steps in this run=     43 maximum allowed number of steps=    100.
 GradGradGradGradGradGradGradGradGradGradGradGradGradGradGradGradGradGrad

 Leave Link  103 at Sun Apr 14 13:00:48 2024, MaxMem=  1073741824 cpu:               0.0 elap:               0.0
 (Enter /usr/local/g16/l202.exe)
                          Input orientation:                          
 ---------------------------------------------------------------------
 Center     Atomic      Atomic             Coordinates (Angstroms)
 Number     Number       Type             X           Y           Z
 ---------------------------------------------------------------------
      1          6           0        0.000000    0.000000    0.000000
      2          6           0        0.000000    0.000000    1.531811
      3          1           0        1.040007    0.000000    1.932336
      4          1           0       -0.521687    0.899699    1.932336
      5          1           0       -0.520022   -0.902652    1.928088
      6          8           0        0.662997    1.150827   -0.468769
      7          1           0        0.646928    1.122935   -1.410509
      8          1           0        0.533525   -0.893366   -0.405272
      9          1           0       -1.040467    0.013418   -0.405272
 ---------------------------------------------------------------------
                    Distance matrix (angstroms):
                    1          2          3          4          5
     1  C    0.000000
     2  C    1.531811   0.000000
     3  H    2.194433   1.114467   0.000000
     4  H    2.194433   1.114467   1.802317   0.000000
     5  H    2.191513   1.114558   1.802357   1.802357   0.000000
     6  O    1.408443   2.401309   2.689209   2.689209   3.370643
     7  H    1.915472   3.215080   3.548254   3.548254   4.075660
     8  H    1.116690   2.198873   2.553241   3.129371   2.560199
     9  H    1.116690   2.198873   3.129371   2.553241   2.560199
                    6          7          8          9
     6  O    0.000000
     7  H    0.942290   0.000000
     8  H    2.049273   2.255843   0.000000
     9  H    2.049273   2.255843   1.816510   0.000000
 Stoichiometry    C2H6O
 Framework group  CS[SG(C2H2O),X(H4)]
 Deg. of freedom    13
 Full point group                 CS      NOp   2
 Largest Abelian subgroup         CS      NOp   2
 Largest concise Abelian subgroup CS      NOp   2
                         Standard orientation:                         
 ---------------------------------------------------------------------
 Center     Atomic      Atomic             Coordinates (Angstroms)
 Number     Number       Type             X           Y           Z
 ---------------------------------------------------------------------
      1          6           0       -0.000000    0.544039   -0.000000
      2          6           0        1.180633   -0.431947    0.000000
      3          1           0        1.158554   -1.087281    0.901159
      4          1           0        1.158554   -1.087281   -0.901159
      5          1           0        2.149796    0.118474    0.000000
      6          8           0       -1.207521   -0.180947   -0.000000
      7          1           0       -1.912852    0.443889   -0.000000
      8          1           0        0.011159    1.193612    0.908255
      9          1           0        0.011159    1.193612   -0.908255
 ---------------------------------------------------------------------
 Rotational constants (GHZ):          35.5045351           9.1732081           8.0566920
 Leave Link  202 at Sun Apr 14 13:00:48 2024, MaxMem=  1073741824 cpu:               0.0 elap:               0.0
 (Enter /usr/local/g16/l301.exe)
 Standard basis: 6-31G(d) (6D, 7F)
 Ernie: Thresh=  0.10000D-02 Tol=  0.10000D-05 Strict=F.
 There are    41 symmetry adapted cartesian basis functions of A'  symmetry.
 There are    16 symmetry adapted cartesian basis functions of A"  symmetry.
 There are    41 symmetry adapted basis functions of A'  symmetry.
 There are    16 symmetry adapted basis functions of A"  symmetry.
    57 basis functions,   108 primitive gaussians,    57 cartesian basis functions
    13 alpha electrons       13 beta electrons
       nuclear repulsion energy        81.4217611594 Hartrees.
 IExCor=  402 DFT=T Ex+Corr=B3LYP ExCW=0 ScaHFX=  0.200000
 ScaDFX=  0.800000  0.720000  1.000000  0.810000 ScalE2=  1.000000  1.000000
 IRadAn=      5 IRanWt=     -1 IRanGd=            0 ICorTp=0 IEmpDi=  4
 NAtoms=    9 NActive=    9 NUniq=    7 SFac= 1.65D+00 NAtFMM=   60 NAOKFM=F Big=F
 Integral buffers will be    131072 words long.
 Raffenetti 2 integral format.
 Two-electron integral symmetry is turned on.
 Leave Link  301 at Sun Apr 14 13:00:48 2024, MaxMem=  1073741824 cpu:               0.1 elap:               0.0
 (Enter /usr/local/g16/l302.exe)
 NPDir=0 NMtPBC=     1 NCelOv=     1 NCel=       1 NClECP=     1 NCelD=      1
         NCelK=      1 NCelE2=     1 NClLst=     1 CellRange=     0.0.
 One-electron integrals computed using PRISM.
 One-electron integral symmetry used in STVInt
 NBasis=    57 RedAO= T EigKep=  6.01D-03  NBF=    41    16
 NBsUse=    57 1.00D-06 EigRej= -1.00D+00 NBFU=    41    16
 Precomputing XC quadrature grid using
 IXCGrd= 4 IRadAn=           5 IRanWt=          -1 IRanGd=           0 AccXCQ= 0.00D+00.
 Generated NRdTot=       0 NPtTot=           0 NUsed=           0 NTot=          32
 NSgBfM=    57    57    57    57    57 MxSgAt=     9 MxSgA2=     9.
 Leave Link  302 at Sun Apr 14 13:00:48 2024, MaxMem=  1073741824 cpu:               0.2 elap:               0.1
 (Enter /usr/local/g16/l303.exe)
 DipDrv:  MaxL=1.
 Leave Link  303 at Sun Apr 14 13:00:48 2024, MaxMem=  1073741824 cpu:               0.0 elap:               0.0
 (Enter /usr/local/g16/l401.exe)
 ExpMin= 1.61D-01 ExpMax= 5.48D+03 ExpMxC= 8.25D+02 IAcc=3 IRadAn=         5 AccDes= 0.00D+00
 Harris functional with IExCor=  402 and IRadAn=       5 diagonalized for initial guess.
 HarFok:  IExCor=  402 AccDes= 0.00D+00 IRadAn=         5 IDoV= 1 UseB2=F ITyADJ=14
 ICtDFT=  3500011 ScaDFX=  1.000000  1.000000  1.000000  1.000000
 FoFCou: FMM=F IPFlag=           0 FMFlag=      100000 FMFlg1=           0
         NFxFlg=           0 DoJE=T BraDBF=F KetDBF=T FulRan=T
         wScrn=  0.000000 ICntrl=       500 IOpCl=  0 I1Cent=   200000004 NGrid=           0
         NMat0=    1 NMatS0=      1 NMatT0=    0 NMatD0=    1 NMtDS0=    0 NMtDT0=    0
 Petite list used in FoFCou.
 Harris En= -155.068050687315    
 JPrj=0 DoOrth=F DoCkMO=F.
 Initial guess orbital symmetries:
       Occupied  (A') (A') (A') (A') (A') (A') (A') (A") (A') (A')
                 (A") (A') (A")
       Virtual   (A') (A') (A") (A') (A') (A') (A') (A") (A') (A')
                 (A") (A') (A') (A") (A') (A") (A') (A') (A") (A')
                 (A') (A") (A') (A') (A') (A") (A') (A') (A") (A')
                 (A") (A') (A') (A") (A') (A") (A') (A") (A') (A')
                 (A') (A') (A') (A')
 The electronic state of the initial guess is 1-A'.
 Leave Link  401 at Sun Apr 14 13:00:48 2024, MaxMem=  1073741824 cpu:               0.5 elap:               0.2
 (Enter /usr/local/g16/l502.exe)
 Keep R1 ints in memory in symmetry-blocked form, NReq=3134121.
 FoFCou: FMM=F IPFlag=           0 FMFlag=           0 FMFlg1=           0
         NFxFlg=           0 DoJE=F BraDBF=F KetDBF=F FulRan=T
         wScrn=  0.000000 ICntrl=       600 IOpCl=  0 I1Cent=           0 NGrid=           0
         NMat0=    1 NMatS0=   1653 NMatT0=    0 NMatD0=    1 NMtDS0=    0 NMtDT0=    0
 Petite list used in FoFCou.
 Closed shell SCF:
 Using DIIS extrapolation, IDIIS=  1040.
 NGot=  1073741824 LenX=  1073016769 LenY=  1073013079
 Requested convergence on RMS density matrix=1.00D-08 within 128 cycles.
 Requested convergence on MAX density matrix=1.00D-06.
 Requested convergence on             energy=1.00D-06.
 No special actions if energy rises.
 Integral accuracy reduced to 1.0D-05 until final iterations.

 Cycle   1  Pass 0  IDiag  1:
 E= -154.905510574004    
 DIIS: error= 4.67D-02 at cycle   1 NSaved=   1.
 NSaved= 1 IEnMin= 1 EnMin= -154.905510574004     IErMin= 1 ErrMin= 4.67D-02
 ErrMax= 4.67D-02  0.00D+00 EMaxC= 1.00D-01 BMatC= 1.33D-01 BMatP= 1.33D-01
 IDIUse=3 WtCom= 5.33D-01 WtEn= 4.67D-01
 Coeff-Com:  0.100D+01
 Coeff-En:   0.100D+01
 Coeff:      0.100D+01
 Gap=     0.272 Goal=   None    Shift=    0.000
 GapD=    0.272 DampG=1.000 DampE=0.500 DampFc=0.5000 IDamp=-1.
 Damping current iteration by 5.00D-01
 RMSDP=1.38D-02 MaxDP=1.39D-01              OVMax= 1.72D-01

 Cycle   2  Pass 0  IDiag  1:
 E= -154.957087906618     Delta-E=       -0.051577332614 Rises=F Damp=T
 DIIS: error= 9.55D-03 at cycle   2 NSaved=   2.
 NSaved= 2 IEnMin= 2 EnMin= -154.957087906618     IErMin= 2 ErrMin= 9.55D-03
 ErrMax= 9.55D-03  0.00D+00 EMaxC= 1.00D-01 BMatC= 7.21D-03 BMatP= 1.33D-01
 IDIUse=3 WtCom= 9.04D-01 WtEn= 9.55D-02
 Coeff-Com:  0.127D+00 0.873D+00
 Coeff-En:   0.193D+00 0.807D+00
 Coeff:      0.134D+00 0.866D+00
 Gap=     0.344 Goal=   None    Shift=    0.000
 RMSDP=2.03D-03 MaxDP=2.09D-02 DE=-5.16D-02 OVMax= 9.72D-02

 Cycle   3  Pass 0  IDiag  1:
 E= -155.029796497249     Delta-E=       -0.072708590631 Rises=F Damp=F
 DIIS: error= 3.89D-03 at cycle   3 NSaved=   3.
 NSaved= 3 IEnMin= 3 EnMin= -155.029796497249     IErMin= 3 ErrMin= 3.89D-03
 ErrMax= 3.89D-03  0.00D+00 EMaxC= 1.00D-01 BMatC= 1.29D-03 BMatP= 7.21D-03
 IDIUse=3 WtCom= 9.61D-01 WtEn= 3.89D-02
 Coeff-Com:  0.259D-01 0.269D+00 0.705D+00
 Coeff-En:   0.000D+00 0.000D+00 0.100D+01
 Coeff:      0.249D-01 0.258D+00 0.717D+00
 Gap=     0.335 Goal=   None    Shift=    0.000
 RMSDP=8.07D-04 MaxDP=9.21D-03 DE=-7.27D-02 OVMax= 1.08D-02

 Cycle   4  Pass 0  IDiag  1:
 E= -155.030389636582     Delta-E=       -0.000593139332 Rises=F Damp=F
 DIIS: error= 2.66D-03 at cycle   4 NSaved=   4.
 NSaved= 4 IEnMin= 4 EnMin= -155.030389636582     IErMin= 4 ErrMin= 2.66D-03
 ErrMax= 2.66D-03  0.00D+00 EMaxC= 1.00D-01 BMatC= 5.92D-04 BMatP= 1.29D-03
 IDIUse=3 WtCom= 9.73D-01 WtEn= 2.66D-02
 Coeff-Com:  0.289D-02 0.449D-01 0.404D+00 0.548D+00
 Coeff-En:   0.000D+00 0.000D+00 0.320D+00 0.680D+00
 Coeff:      0.281D-02 0.437D-01 0.402D+00 0.551D+00
 Gap=     0.337 Goal=   None    Shift=    0.000
 RMSDP=3.42D-04 MaxDP=3.88D-03 DE=-5.93D-04 OVMax= 4.71D-03

 Cycle   5  Pass 0  IDiag  1:
 E= -155.030872814817     Delta-E=       -0.000483178236 Rises=F Damp=F
 DIIS: error= 2.55D-04 at cycle   5 NSaved=   5.
 NSaved= 5 IEnMin= 5 EnMin= -155.030872814817     IErMin= 5 ErrMin= 2.55D-04
 ErrMax= 2.55D-04  0.00D+00 EMaxC= 1.00D-01 BMatC= 5.92D-06 BMatP= 5.92D-04
 IDIUse=3 WtCom= 9.97D-01 WtEn= 2.55D-03
 Coeff-Com:  0.329D-03-0.878D-03 0.862D-01 0.165D+00 0.749D+00
 Coeff-En:   0.000D+00 0.000D+00 0.000D+00 0.000D+00 0.100D+01
 Coeff:      0.328D-03-0.876D-03 0.860D-01 0.165D+00 0.750D+00
 Gap=     0.337 Goal=   None    Shift=    0.000
 RMSDP=3.77D-05 MaxDP=3.01D-04 DE=-4.83D-04 OVMax= 5.75D-04

 Cycle   6  Pass 0  IDiag  1:
 E= -155.030877830759     Delta-E=       -0.000005015942 Rises=F Damp=F
 DIIS: error= 3.96D-05 at cycle   6 NSaved=   6.
 NSaved= 6 IEnMin= 6 EnMin= -155.030877830759     IErMin= 6 ErrMin= 3.96D-05
 ErrMax= 3.96D-05  0.00D+00 EMaxC= 1.00D-01 BMatC= 1.14D-07 BMatP= 5.92D-06
 IDIUse=1 WtCom= 1.00D+00 WtEn= 0.00D+00
 Coeff-Com:  0.176D-03-0.959D-03 0.248D-01 0.504D-01 0.262D+00 0.663D+00
 Coeff:      0.176D-03-0.959D-03 0.248D-01 0.504D-01 0.262D+00 0.663D+00
 Gap=     0.337 Goal=   None    Shift=    0.000
 RMSDP=6.25D-06 MaxDP=8.25D-05 DE=-5.02D-06 OVMax= 9.73D-05

 Initial convergence to 1.0D-05 achieved.  Increase integral accuracy.
 Cycle   7  Pass 1  IDiag  1:
 E= -155.030869969482     Delta-E=        0.000007861277 Rises=F Damp=F
 DIIS: error= 1.71D-05 at cycle   1 NSaved=   1.
 NSaved= 1 IEnMin= 1 EnMin= -155.030869969482     IErMin= 1 ErrMin= 1.71D-05
 ErrMax= 1.71D-05  0.00D+00 EMaxC= 1.00D-01 BMatC= 1.53D-08 BMatP= 1.53D-08
 IDIUse=1 WtCom= 1.00D+00 WtEn= 0.00D+00
 Coeff-Com:  0.100D+01
 Coeff:      0.100D+01
 Gap=     0.337 Goal=   None    Shift=    0.000
 RMSDP=6.25D-06 MaxDP=8.25D-05 DE= 7.86D-06 OVMax= 6.22D-05

 Cycle   8  Pass 1  IDiag  1:
 E= -155.030869964484     Delta-E=        0.000000004998 Rises=F Damp=F
 DIIS: error= 2.03D-05 at cycle   2 NSaved=   2.
 NSaved= 2 IEnMin= 1 EnMin= -155.030869969482     IErMin= 1 ErrMin= 1.71D-05
 ErrMax= 2.03D-05  0.00D+00 EMaxC= 1.00D-01 BMatC= 2.07D-08 BMatP= 1.53D-08
 IDIUse=1 WtCom= 1.00D+00 WtEn= 0.00D+00
 Coeff-Com:  0.538D+00 0.462D+00
 Coeff:      0.538D+00 0.462D+00
 Gap=     0.337 Goal=   None    Shift=    0.000
 RMSDP=2.10D-06 MaxDP=3.28D-05 DE= 5.00D-09 OVMax= 3.45D-05

 Cycle   9  Pass 1  IDiag  1:
 E= -155.030869984019     Delta-E=       -0.000000019535 Rises=F Damp=F
 DIIS: error= 5.51D-07 at cycle   3 NSaved=   3.
 NSaved= 3 IEnMin= 3 EnMin= -155.030869984019     IErMin= 3 ErrMin= 5.51D-07
 ErrMax= 5.51D-07  0.00D+00 EMaxC= 1.00D-01 BMatC= 2.00D-11 BMatP= 1.53D-08
 IDIUse=1 WtCom= 1.00D+00 WtEn= 0.00D+00
 Coeff-Com:  0.956D-01 0.920D-01 0.812D+00
 Coeff:      0.956D-01 0.920D-01 0.812D+00
 Gap=     0.337 Goal=   None    Shift=    0.000
 RMSDP=9.68D-08 MaxDP=9.23D-07 DE=-1.95D-08 OVMax= 1.52D-06

 Cycle  10  Pass 1  IDiag  1:
 E= -155.030869984034     Delta-E=       -0.000000000015 Rises=F Damp=F
 DIIS: error= 3.33D-07 at cycle   4 NSaved=   4.
 NSaved= 4 IEnMin= 4 EnMin= -155.030869984034     IErMin= 4 ErrMin= 3.33D-07
 ErrMax= 3.33D-07  0.00D+00 EMaxC= 1.00D-01 BMatC= 4.11D-12 BMatP= 2.00D-11
 IDIUse=1 WtCom= 1.00D+00 WtEn= 0.00D+00
 Coeff-Com:  0.835D-02 0.115D-01 0.319D+00 0.661D+00
 Coeff:      0.835D-02 0.115D-01 0.319D+00 0.661D+00
 Gap=     0.337 Goal=   None    Shift=    0.000
 RMSDP=3.98D-08 MaxDP=6.74D-07 DE=-1.52D-11 OVMax= 5.91D-07

 Cycle  11  Pass 1  IDiag  1:
 E= -155.030869984037     Delta-E=       -0.000000000002 Rises=F Damp=F
 DIIS: error= 1.24D-07 at cycle   5 NSaved=   5.
 NSaved= 5 IEnMin= 5 EnMin= -155.030869984037     IErMin= 5 ErrMin= 1.24D-07
 ErrMax= 1.24D-07  0.00D+00 EMaxC= 1.00D-01 BMatC= 1.07D-12 BMatP= 4.11D-12
 IDIUse=1 WtCom= 1.00D+00 WtEn= 0.00D+00
 Coeff-Com: -0.664D-02-0.435D-02 0.915D-01 0.381D+00 0.538D+00
 Coeff:     -0.664D-02-0.435D-02 0.915D-01 0.381D+00 0.538D+00
 Gap=     0.337 Goal=   None    Shift=    0.000
 RMSDP=1.37D-08 MaxDP=2.17D-07 DE=-2.22D-12 OVMax= 2.09D-07

 Cycle  12  Pass 1  IDiag  1:
 E= -155.030869984037     Delta-E=       -0.000000000001 Rises=F Damp=F
 DIIS: error= 6.87D-09 at cycle   6 NSaved=   6.
 NSaved= 6 IEnMin= 6 EnMin= -155.030869984037     IErMin= 6 ErrMin= 6.87D-09
 ErrMax= 6.87D-09  0.00D+00 EMaxC= 1.00D-01 BMatC= 2.75D-15 BMatP= 1.07D-12
 IDIUse=1 WtCom= 1.00D+00 WtEn= 0.00D+00
 Coeff-Com: -0.126D-02-0.980D-03 0.101D-01 0.502D-01 0.102D+00 0.840D+00
 Coeff:     -0.126D-02-0.980D-03 0.101D-01 0.502D-01 0.102D+00 0.840D+00
 Gap=     0.337 Goal=   None    Shift=    0.000
 RMSDP=1.45D-09 MaxDP=1.40D-08 DE=-5.68D-13 OVMax= 1.86D-08

 SCF Done:  E(RB3LYP) =  -155.030869984     A.U. after   12 cycles
            NFock= 12  Conv=0.15D-08     -V/T= 2.0095
 KE= 1.535751824019D+02 PE=-5.246917774993D+02 EE= 1.346639639540D+02
 Leave Link  502 at Sun Apr 14 13:00:50 2024, MaxMem=  1073741824 cpu:               3.6 elap:               1.8
 (Enter /usr/local/g16/l601.exe)
 Copying SCF densities to generalized density rwf, IOpCl= 0 IROHF=0.

 **********************************************************************

            Population analysis using the SCF Density.

 **********************************************************************

 Orbital symmetries:
       Occupied  (A') (A') (A') (A') (A') (A') (A') (A") (A') (A')
                 (A") (A') (A")
       Virtual   (A') (A') (A") (A') (A') (A") (A') (A') (A') (A")
                 (A') (A') (A') (A") (A') (A") (A') (A') (A") (A')
                 (A') (A") (A') (A') (A') (A") (A') (A') (A") (A')
                 (A") (A') (A') (A") (A') (A") (A') (A") (A') (A')
                 (A') (A') (A') (A')
 The electronic state is 1-A'.
 Alpha  occ. eigenvalues --  -19.13229 -10.23204 -10.17994  -1.01860  -0.73855
 Alpha  occ. eigenvalues --   -0.60489  -0.51133  -0.45857  -0.39737  -0.37738
 Alpha  occ. eigenvalues --   -0.36176  -0.32262  -0.25858
 Alpha virt. eigenvalues --    0.07856   0.11945   0.14958   0.15843   0.16996
 Alpha virt. eigenvalues --    0.19561   0.22332   0.23578   0.53565   0.55844
 Alpha virt. eigenvalues --    0.56425   0.58460   0.66467   0.69973   0.81204
 Alpha virt. eigenvalues --    0.84359   0.87423   0.87960   0.89781   0.92012
 Alpha virt. eigenvalues --    0.98376   1.02127   1.02810   1.16754   1.36170
 Alpha virt. eigenvalues --    1.44791   1.47733   1.66463   1.74233   1.77638
 Alpha virt. eigenvalues --    1.91205   1.92940   2.06480   2.16468   2.20496
 Alpha virt. eigenvalues --    2.32590   2.38227   2.39473   2.51781   2.61888
 Alpha virt. eigenvalues --    2.84933   3.73247   4.15752   4.39257
          Condensed to atoms (all electrons):
               1          2          3          4          5          6
     1  C    4.759637   0.380505  -0.029931  -0.029931  -0.026447   0.255473
     2  C    0.380505   5.087041   0.370631   0.370631   0.358099  -0.053898
     3  H   -0.029931   0.370631   0.561615  -0.030958  -0.027920   0.002297
     4  H   -0.029931   0.370631  -0.030958   0.561615  -0.027920   0.002297
     5  H   -0.026447   0.358099  -0.027920  -0.027920   0.582586   0.002735
     6  O    0.255473  -0.053898   0.002297   0.002297   0.002735   8.254984
     7  H   -0.023801   0.007096  -0.000090  -0.000090  -0.000304   0.238900
     8  H    0.366612  -0.040529  -0.006490   0.005362   0.000001  -0.045200
     9  H    0.366612  -0.040529   0.005362  -0.006490   0.000001  -0.045200
               7          8          9
     1  C   -0.023801   0.366612   0.366612
     2  C    0.007096  -0.040529  -0.040529
     3  H   -0.000090  -0.006490   0.005362
     4  H   -0.000090   0.005362  -0.006490
     5  H   -0.000304   0.000001   0.000001
     6  O    0.238900  -0.045200  -0.045200
     7  H    0.394153  -0.004285  -0.004285
     8  H   -0.004285   0.666333  -0.055459
     9  H   -0.004285  -0.055459   0.666333
 Mulliken charges:
               1
     1  C   -0.018727
     2  C   -0.439045
     3  H    0.155485
     4  H    0.155485
     5  H    0.139170
     6  O   -0.612387
     7  H    0.392705
     8  H    0.113657
     9  H    0.113657
 Sum of Mulliken charges =   0.00000
 Mulliken charges with hydrogens summed into heavy atoms:
               1
     1  C    0.208587
     2  C    0.011094
     6  O   -0.219681
 Electronic spatial extent (au):  <R**2>=            195.5540
 Charge=              0.0000 electrons
 Dipole moment (field-independent basis, Debye):
    X=              0.0287    Y=              1.5243    Z=             -0.0000  Tot=              1.5246
 Quadrupole moment (field-independent basis, Debye-Ang):
   XX=            -17.5713   YY=            -19.7002   ZZ=            -19.9391
   XY=             -2.6173   XZ=             -0.0000   YZ=              0.0000
 Traceless Quadrupole moment (field-independent basis, Debye-Ang):
   XX=              1.4989   YY=             -0.6300   ZZ=             -0.8689
   XY=             -2.6173   XZ=             -0.0000   YZ=              0.0000
 Octapole moment (field-independent basis, Debye-Ang**2):
  XXX=            -13.6883  YYY=             -0.2889  ZZZ=              0.0000  XYY=             -2.3979
  XXY=              4.5829  XXZ=             -0.0000  XZZ=             -1.6105  YZZ=             -0.2744
  YYZ=             -0.0000  XYZ=              0.0000
 Hexadecapole moment (field-independent basis, Debye-Ang**3):
 XXXX=           -132.7930 YYYY=            -60.6436 ZZZZ=            -33.1561 XXXY=              5.2746
 XXXZ=             -0.0000 YYYX=              9.8399 YYYZ=              0.0000 ZZZX=             -0.0000
 ZZZY=              0.0000 XXYY=            -34.7132 XXZZ=            -32.2933 YYZZ=            -14.2550
 XXYZ=              0.0000 YYXZ=             -0.0000 ZZXY=              2.5690
 N-N= 8.142176115936D+01 E-N=-5.246917775767D+02  KE= 1.535751824019D+02
 Symmetry A'   KE= 1.450033834647D+02
 Symmetry A"   KE= 8.571798937206D+00
 No NMR shielding tensors so no spin-rotation constants.
 Leave Link  601 at Sun Apr 14 13:00:50 2024, MaxMem=  1073741824 cpu:               0.1 elap:               0.1
 (Enter /usr/local/g16/l701.exe)
 ... and contract with generalized density number  0.
 Compute integral first derivatives.
 Leave Link  701 at Sun Apr 14 13:00:50 2024, MaxMem=  1073741824 cpu:               0.1 elap:               0.1
 (Enter /usr/local/g16/l702.exe)
 L702 exits ... SP integral derivatives will be done elsewhere.
 Leave Link  702 at Sun Apr 14 13:00:50 2024, MaxMem=  1073741824 cpu:               0.0 elap:               0.0
 (Enter /usr/local/g16/l703.exe)
 Integral derivatives from FoFJK, PRISM(SPDF).
 Compute integral first derivatives, UseDBF=F ICtDFT=           0.
 Calling FoFJK, ICntrl=      2127 FMM=F ISym2X=1 I1Cent= 0 IOpClX= 0 NMat=1 NMatS=1 NMatT=0.
 FoFJK:  IHMeth= 1 ICntrl=    2127 DoSepK=F KAlg= 0 I1Cent=           0 FoldK=F
 IRaf=         0 NMat=       1 IRICut=       1 DoRegI=T DoRafI=F ISym2E= 1 IDoP0=0 IntGTp=1.
 FoFCou: FMM=F IPFlag=           0 FMFlag=      100000 FMFlg1=         800
         NFxFlg=           0 DoJE=F BraDBF=F KetDBF=F FulRan=T
         wScrn=  0.000000 ICntrl=      2127 IOpCl=  0 I1Cent=           0 NGrid=           0
         NMat0=    1 NMatS0=      1 NMatT0=    0 NMatD0=    1 NMtDS0=    0 NMtDT0=    0
 Petite list used in FoFCou.
 Leave Link  703 at Sun Apr 14 13:00:51 2024, MaxMem=  1073741824 cpu:               1.0 elap:               0.5
 (Enter /usr/local/g16/l716.exe)
 Dipole        = 1.13072414D-02 5.99715006D-01-6.66133815D-16
 ***** Axes restored to original set *****
 -------------------------------------------------------------------
 Center     Atomic                   Forces (Hartrees/Bohr)
 Number     Number              X              Y              Z
 -------------------------------------------------------------------
      1        6          -0.004578741   -0.007947760   -0.005232667
      2        6          -0.000490096   -0.000850707    0.006639681
      3        1          -0.010802416    0.000418991   -0.005757727
      4        1           0.005781153   -0.009134879   -0.005757727
      5        1           0.005253322    0.009118696   -0.005185719
      6        8           0.007990307    0.013869544    0.028180105
      7        1           0.000185298    0.000321640   -0.027363307
      8        1          -0.009143032    0.001407824    0.007238680
      9        1           0.005804205   -0.007203348    0.007238680
 -------------------------------------------------------------------
 Cartesian Forces:  Max     0.028180105 RMS     0.009943184
 Leave Link  716 at Sun Apr 14 13:00:51 2024, MaxMem=  1073741824 cpu:               0.0 elap:               0.0
 (Enter /usr/local/g16/l103.exe)

 GradGradGradGradGradGradGradGradGradGradGradGradGradGradGradGradGradGrad
 Berny optimization.
 FormGI is forming the generalized inverse of G from B-inverse, IUseBI=4.
 Internal  Forces:  Max     0.027334962 RMS     0.007697356
 Search for a local minimum.
 Step number   1 out of a maximum of   43
 All quantities printed in internal units (Hartrees-Bohrs-Radians)
 RMS Force = .76974D-02 SwitMx=.10000D-02 MixMth= 1
 Mixed Optimization -- RFO/linear search
 Second derivative matrix not updated -- first step.
 ITU=  0
     Eigenvalues ---    0.00345   0.01580   0.05172   0.05499   0.05526
     Eigenvalues ---    0.05593   0.11562   0.13770   0.16000   0.16000
     Eigenvalues ---    0.16000   0.16000   0.22018   0.29257   0.31902
     Eigenvalues ---    0.31902   0.32122   0.32132   0.32132   0.44249
     Eigenvalues ---    0.59464
 RFO step:  Lambda=-6.40609130D-03 EMin= 3.45154088D-03
 Linear search not attempted -- first point.
 Iteration  1 RMS(Cart)=  0.04446449 RMS(Int)=  0.00129060
 Iteration  2 RMS(Cart)=  0.00088973 RMS(Int)=  0.00087463
 Iteration  3 RMS(Cart)=  0.00000039 RMS(Int)=  0.00087463
 ITry= 1 IFail=0 DXMaxC= 9.52D-02 DCOld= 1.00D+10 DXMaxT= 3.00D-01 DXLimC= 3.00D+00 Rises=F
 ClnCor:  largest displacement from symmetrization is 2.88D-09 for atom     4.
 Variable       Old X    -DE/DX   Delta X   Delta X   Delta X     New X
                                 (Linear)    (Quad)   (Total)
    R1        2.89470  -0.01006   0.00000  -0.03365  -0.03365   2.86105
    R2        2.66157   0.01517   0.00000   0.03380   0.03380   2.69537
    R3        2.11024  -0.00812   0.00000  -0.02496  -0.02496   2.08528
    R4        2.11024  -0.00812   0.00000  -0.02496  -0.02496   2.08528
    R5        2.10604  -0.01215   0.00000  -0.03707  -0.03707   2.06896
    R6        2.10604  -0.01215   0.00000  -0.03707  -0.03707   2.06896
    R7        2.10621  -0.01168   0.00000  -0.03565  -0.03565   2.07056
    R8        1.78067   0.02733   0.00000   0.04548   0.04548   1.82615
    A1        1.91010  -0.00844   0.00000  -0.02664  -0.02604   1.88406
    A2        1.94220  -0.00295   0.00000  -0.03739  -0.03783   1.90437
    A3        1.94220  -0.00295   0.00000  -0.03739  -0.03783   1.90437
    A4        1.88388   0.00811   0.00000   0.06840   0.06776   1.95163
    A5        1.88388   0.00811   0.00000   0.06840   0.06776   1.95163
    A6        1.89976  -0.00115   0.00000  -0.02876  -0.03263   1.86713
    A7        1.93841  -0.00165   0.00000  -0.01073  -0.01079   1.92762
    A8        1.93841  -0.00165   0.00000  -0.01073  -0.01079   1.92762
    A9        1.93430  -0.00078   0.00000  -0.00303  -0.00303   1.93126
   A10        1.88354   0.00136   0.00000   0.00506   0.00496   1.88850
   A11        1.88349   0.00147   0.00000   0.01039   0.01039   1.89387
   A12        1.88349   0.00147   0.00000   0.01039   0.01039   1.89387
   A13        1.87593   0.00232   0.00000   0.01397   0.01397   1.88990
    D1       -1.04813   0.00024   0.00000   0.00398   0.00395  -1.04418
    D2        1.04813  -0.00024   0.00000  -0.00398  -0.00395   1.04418
    D3        3.14159   0.00000   0.00000   0.00000   0.00000   3.14159
    D4        1.03243   0.00304   0.00000   0.04842   0.04779   1.08022
    D5        3.12870   0.00255   0.00000   0.04046   0.03988  -3.11461
    D6       -1.06103   0.00279   0.00000   0.04444   0.04384  -1.01719
    D7       -3.12870  -0.00255   0.00000  -0.04046  -0.03988   3.11461
    D8       -1.03243  -0.00304   0.00000  -0.04842  -0.04779  -1.08022
    D9        1.06103  -0.00279   0.00000  -0.04444  -0.04384   1.01719
   D10        3.14159  -0.00000   0.00000  -0.00000   0.00000   3.14159
   D11        1.02536   0.00365   0.00000   0.01954   0.02133   1.04670
   D12       -1.02536  -0.00365   0.00000  -0.01954  -0.02133  -1.04670
         Item               Value     Threshold  Converged?
 Maximum Force            0.027335     0.000450     NO 
 RMS     Force            0.007697     0.000300     NO 
 Maximum Displacement     0.095195     0.001800     NO 
 RMS     Displacement     0.044486     0.001200     NO 
 Predicted change in Energy=-3.307955D-03
 Lowest energy point so far.  Saving SCF results.
 GradGradGradGradGradGradGradGradGradGradGradGradGradGradGradGradGradGrad

 Leave Link  103 at Sun Apr 14 13:00:51 2024, MaxMem=  1073741824 cpu:               0.0 elap:               0.0
 (Enter /usr/local/g16/l202.exe)
                          Input orientation:                          
 ---------------------------------------------------------------------
 Center     Atomic      Atomic             Coordinates (Angstroms)
 Number     Number       Type             X           Y           Z
 ---------------------------------------------------------------------
      1          6           0       -0.002139   -0.003713    0.000072
      2          6           0        0.000252    0.000437    1.514066
      3          1           0        1.026732    0.005538    1.894862
      4          1           0       -0.510236    0.890993    1.894862
      5          1           0       -0.510943   -0.886894    1.903768
      6          8           0        0.674520    1.170830   -0.443765
      7          1           0        0.675809    1.173067   -1.410118
      8          1           0        0.492153   -0.922441   -0.359499
      9          1           0       -1.044866   -0.036956   -0.359499
 ---------------------------------------------------------------------
                    Distance matrix (angstroms):
                    1          2          3          4          5
     1  C    0.000000
     2  C    1.514002   0.000000
     3  H    2.156129   1.094848   0.000000
     4  H    2.156129   1.094848   1.773781   0.000000
     5  H    2.159386   1.095693   1.777909   1.777909   0.000000
     6  O    1.426328   2.378563   2.636500   2.636500   3.339231
     7  H    1.957820   3.222157   3.522664   3.522664   4.078438
     8  H    1.103484   2.145674   2.495808   3.061938   2.475852
     9  H    1.103484   2.145674   3.061938   2.495808   2.475852
                    6          7          8          9
     6  O    0.000000
     7  H    0.966356   0.000000
     8  H    2.102888   2.351315   0.000000
     9  H    2.102888   2.351315   1.773841   0.000000
 Stoichiometry    C2H6O
 Framework group  CS[SG(C2H2O),X(H4)]
 Deg. of freedom    13
 Full point group                 CS      NOp   2
 RotChk:  IX=0 Diff= 9.48D-03
 Largest Abelian subgroup         CS      NOp   2
 Largest concise Abelian subgroup CS      NOp   2
                         Standard orientation:                         
 ---------------------------------------------------------------------
 Center     Atomic      Atomic             Coordinates (Angstroms)
 Number     Number       Type             X           Y           Z
 ---------------------------------------------------------------------
      1          6           0       -0.000000    0.553662    0.000000
      2          6           0        1.170318   -0.406837   -0.000000
      3          1           0        1.138818   -1.048028    0.886891
      4          1           0        1.138818   -1.048028   -0.886891
      5          1           0        2.119497    0.140524   -0.000000
      6          8           0       -1.200607   -0.216373    0.000000
      7          1           0       -1.951161    0.392324    0.000000
      8          1           0        0.068485    1.206623    0.886921
      9          1           0        0.068485    1.206623   -0.886921
 ---------------------------------------------------------------------
 Rotational constants (GHZ):          35.0560235           9.3614705           8.1434890
 Leave Link  202 at Sun Apr 14 13:00:51 2024, MaxMem=  1073741824 cpu:               0.0 elap:               0.0
 (Enter /usr/local/g16/l301.exe)
 Standard basis: 6-31G(d) (6D, 7F)
 Ernie: Thresh=  0.10000D-02 Tol=  0.10000D-05 Strict=F.
 There are    41 symmetry adapted cartesian basis functions of A'  symmetry.
 There are    16 symmetry adapted cartesian basis functions of A"  symmetry.
 There are    41 symmetry adapted basis functions of A'  symmetry.
 There are    16 symmetry adapted basis functions of A"  symmetry.
    57 basis functions,   108 primitive gaussians,    57 cartesian basis functions
    13 alpha electrons       13 beta electrons
       nuclear repulsion energy        81.6602457174 Hartrees.
 IExCor=  402 DFT=T Ex+Corr=B3LYP ExCW=0 ScaHFX=  0.200000
 ScaDFX=  0.800000  0.720000  1.000000  0.810000 ScalE2=  1.000000  1.000000
 IRadAn=      5 IRanWt=     -1 IRanGd=            0 ICorTp=0 IEmpDi=  4
 NAtoms=    9 NActive=    9 NUniq=    7 SFac= 1.65D+00 NAtFMM=   60 NAOKFM=F Big=F
 Integral buffers will be    131072 words long.
 Raffenetti 2 integral format.
 Two-electron integral symmetry is turned on.
 Leave Link  301 at Sun Apr 14 13:00:51 2024, MaxMem=  1073741824 cpu:               0.1 elap:               0.0
 (Enter /usr/local/g16/l302.exe)
 NPDir=0 NMtPBC=     1 NCelOv=     1 NCel=       1 NClECP=     1 NCelD=      1
         NCelK=      1 NCelE2=     1 NClLst=     1 CellRange=     0.0.
 One-electron integrals computed using PRISM.
 One-electron integral symmetry used in STVInt
 NBasis=    57 RedAO= T EigKep=  5.96D-03  NBF=    41    16
 NBsUse=    57 1.00D-06 EigRej= -1.00D+00 NBFU=    41    16
 Precomputing XC quadrature grid using
 IXCGrd= 4 IRadAn=           5 IRanWt=          -1 IRanGd=           0 AccXCQ= 0.00D+00.
 Generated NRdTot=       0 NPtTot=           0 NUsed=           0 NTot=          32
 NSgBfM=    57    57    57    57    57 MxSgAt=     9 MxSgA2=     9.
 Leave Link  302 at Sun Apr 14 13:00:51 2024, MaxMem=  1073741824 cpu:               0.2 elap:               0.1
 (Enter /usr/local/g16/l303.exe)
 DipDrv:  MaxL=1.
 Leave Link  303 at Sun Apr 14 13:00:51 2024, MaxMem=  1073741824 cpu:               0.0 elap:               0.0
 (Enter /usr/local/g16/l401.exe)
 Initial guess from the checkpoint file:  "ethanol-opt.chk"
 B after Tr=    -0.000000   -0.000000    0.000000
         Rot=    0.999973   -0.000000    0.000000   -0.007389 Ang=  -0.85 deg.
 Guess basis will be translated and rotated to current coordinates.
 JPrj=2 DoOrth=T DoCkMO=T.
 Initial guess orbital symmetries:
       Occupied  (A') (A') (A') (A') (A') (A') (A') (A") (A') (A')
                 (A") (A') (A")
       Virtual   (A') (A') (A") (A') (A') (A") (A') (A') (A') (A")
                 (A') (A') (A') (A") (A') (A") (A') (A') (A") (A')
                 (A') (A") (A') (A') (A') (A") (A') (A') (A") (A')
                 (A") (A') (A') (A") (A') (A") (A') (A") (A') (A')
                 (A') (A') (A') (A')
 The electronic state of the initial guess is 1-A'.
 Generating alternative initial guess.
 ExpMin= 1.61D-01 ExpMax= 5.48D+03 ExpMxC= 8.25D+02 IAcc=3 IRadAn=         5 AccDes= 0.00D+00
 Harris functional with IExCor=  402 and IRadAn=       5 diagonalized for initial guess.
 HarFok:  IExCor=  402 AccDes= 0.00D+00 IRadAn=         5 IDoV= 1 UseB2=F ITyADJ=14
 ICtDFT=  3500011 ScaDFX=  1.000000  1.000000  1.000000  1.000000
 FoFCou: FMM=F IPFlag=           0 FMFlag=      100000 FMFlg1=           0
         NFxFlg=           0 DoJE=T BraDBF=F KetDBF=T FulRan=T
         wScrn=  0.000000 ICntrl=       500 IOpCl=  0 I1Cent=   200000004 NGrid=           0
         NMat0=    1 NMatS0=      1 NMatT0=    0 NMatD0=    1 NMtDS0=    0 NMtDT0=    0
 Petite list used in FoFCou.
 Harris En= -155.076228135376    
 Leave Link  401 at Sun Apr 14 13:00:51 2024, MaxMem=  1073741824 cpu:               0.5 elap:               0.3
 (Enter /usr/local/g16/l502.exe)
 Keep R1 ints in memory in symmetry-blocked form, NReq=3134121.
 FoFCou: FMM=F IPFlag=           0 FMFlag=           0 FMFlg1=           0
         NFxFlg=           0 DoJE=F BraDBF=F KetDBF=F FulRan=T
         wScrn=  0.000000 ICntrl=       600 IOpCl=  0 I1Cent=           0 NGrid=           0
         NMat0=    1 NMatS0=   1653 NMatT0=    0 NMatD0=    1 NMtDS0=    0 NMtDT0=    0
 Petite list used in FoFCou.
 Closed shell SCF:
 Using DIIS extrapolation, IDIIS=  1040.
 NGot=  1073741824 LenX=  1073016769 LenY=  1073013079
 Requested convergence on RMS density matrix=1.00D-08 within 128 cycles.
 Requested convergence on MAX density matrix=1.00D-06.
 Requested convergence on             energy=1.00D-06.
 No special actions if energy rises.
 Integral accuracy reduced to 1.0D-05 until final iterations.

 Cycle   1  Pass 0  IDiag  1:
 E= -155.032716627803    
 DIIS: error= 2.03D-03 at cycle   1 NSaved=   1.
 NSaved= 1 IEnMin= 1 EnMin= -155.032716627803     IErMin= 1 ErrMin= 2.03D-03
 ErrMax= 2.03D-03  0.00D+00 EMaxC= 1.00D-01 BMatC= 7.25D-04 BMatP= 7.25D-04
 IDIUse=3 WtCom= 9.80D-01 WtEn= 2.03D-02
 Coeff-Com:  0.100D+01
 Coeff-En:   0.100D+01
 Coeff:      0.100D+01
 Gap=     0.341 Goal=   None    Shift=    0.000
 GapD=    0.341 DampG=1.000 DampE=1.000 DampFc=1.0000 IDamp=-1.
 RMSDP=7.42D-04 MaxDP=7.87D-03              OVMax= 1.30D-02

 Cycle   2  Pass 0  IDiag  1:
 E= -155.033487345627     Delta-E=       -0.000770717824 Rises=F Damp=F
 DIIS: error= 1.76D-03 at cycle   2 NSaved=   2.
 NSaved= 2 IEnMin= 2 EnMin= -155.033487345627     IErMin= 2 ErrMin= 1.76D-03
 ErrMax= 1.76D-03  0.00D+00 EMaxC= 1.00D-01 BMatC= 2.26D-04 BMatP= 7.25D-04
 IDIUse=3 WtCom= 9.82D-01 WtEn= 1.76D-02
 Coeff-Com:  0.302D+00 0.698D+00
 Coeff-En:   0.000D+00 0.100D+01
 Coeff:      0.297D+00 0.703D+00
 Gap=     0.341 Goal=   None    Shift=    0.000
 RMSDP=3.38D-04 MaxDP=4.14D-03 DE=-7.71D-04 OVMax= 5.10D-03

 Cycle   3  Pass 0  IDiag  1:
 E= -155.033609970675     Delta-E=       -0.000122625048 Rises=F Damp=F
 DIIS: error= 1.04D-03 at cycle   3 NSaved=   3.
 NSaved= 3 IEnMin= 3 EnMin= -155.033609970675     IErMin= 3 ErrMin= 1.04D-03
 ErrMax= 1.04D-03  0.00D+00 EMaxC= 1.00D-01 BMatC= 9.54D-05 BMatP= 2.26D-04
 IDIUse=3 WtCom= 9.90D-01 WtEn= 1.04D-02
 Coeff-Com:  0.127D-01 0.390D+00 0.597D+00
 Coeff-En:   0.000D+00 0.288D+00 0.712D+00
 Coeff:      0.125D-01 0.389D+00 0.598D+00
 Gap=     0.340 Goal=   None    Shift=    0.000
 RMSDP=1.45D-04 MaxDP=1.99D-03 DE=-1.23D-04 OVMax= 2.15D-03

 Cycle   4  Pass 0  IDiag  1:
 E= -155.033686929846     Delta-E=       -0.000076959170 Rises=F Damp=F
 DIIS: error= 2.56D-04 at cycle   4 NSaved=   4.
 NSaved= 4 IEnMin= 4 EnMin= -155.033686929846     IErMin= 4 ErrMin= 2.56D-04
 ErrMax= 2.56D-04  0.00D+00 EMaxC= 1.00D-01 BMatC= 3.41D-06 BMatP= 9.54D-05
 IDIUse=3 WtCom= 9.97D-01 WtEn= 2.56D-03
 Coeff-Com: -0.905D-02 0.145D+00 0.273D+00 0.592D+00
 Coeff-En:   0.000D+00 0.000D+00 0.000D+00 0.100D+01
 Coeff:     -0.903D-02 0.144D+00 0.272D+00 0.593D+00
 Gap=     0.340 Goal=   None    Shift=    0.000
 RMSDP=3.00D-05 MaxDP=4.09D-04 DE=-7.70D-05 OVMax= 4.13D-04

 Cycle   5  Pass 0  IDiag  1:
 E= -155.033689159965     Delta-E=       -0.000002230119 Rises=F Damp=F
 DIIS: error= 5.40D-05 at cycle   5 NSaved=   5.
 NSaved= 5 IEnMin= 5 EnMin= -155.033689159965     IErMin= 5 ErrMin= 5.40D-05
 ErrMax= 5.40D-05  0.00D+00 EMaxC= 1.00D-01 BMatC= 3.41D-07 BMatP= 3.41D-06
 IDIUse=1 WtCom= 1.00D+00 WtEn= 0.00D+00
 Coeff-Com: -0.522D-02 0.327D-01 0.759D-01 0.292D+00 0.605D+00
 Coeff:     -0.522D-02 0.327D-01 0.759D-01 0.292D+00 0.605D+00
 Gap=     0.340 Goal=   None    Shift=    0.000
 RMSDP=9.02D-06 MaxDP=1.14D-04 DE=-2.23D-06 OVMax= 1.43D-04

 Initial convergence to 1.0D-05 achieved.  Increase integral accuracy.
 Cycle   6  Pass 1  IDiag  1:
 E= -155.033684143162     Delta-E=        0.000005016803 Rises=F Damp=F
 DIIS: error= 5.10D-06 at cycle   1 NSaved=   1.
 NSaved= 1 IEnMin= 1 EnMin= -155.033684143162     IErMin= 1 ErrMin= 5.10D-06
 ErrMax= 5.10D-06  0.00D+00 EMaxC= 1.00D-01 BMatC= 2.15D-09 BMatP= 2.15D-09
 IDIUse=1 WtCom= 1.00D+00 WtEn= 0.00D+00
 Coeff-Com:  0.100D+01
 Coeff:      0.100D+01
 Gap=     0.340 Goal=   None    Shift=    0.000
 RMSDP=9.02D-06 MaxDP=1.14D-04 DE= 5.02D-06 OVMax= 1.81D-05

 Cycle   7  Pass 1  IDiag  1:
 E= -155.033684143613     Delta-E=       -0.000000000452 Rises=F Damp=F
 DIIS: error= 6.03D-06 at cycle   2 NSaved=   2.
 NSaved= 2 IEnMin= 2 EnMin= -155.033684143613     IErMin= 1 ErrMin= 5.10D-06
 ErrMax= 6.03D-06  0.00D+00 EMaxC= 1.00D-01 BMatC= 2.16D-09 BMatP= 2.15D-09
 IDIUse=1 WtCom= 1.00D+00 WtEn= 0.00D+00
 Coeff-Com:  0.500D+00 0.500D+00
 Coeff:      0.500D+00 0.500D+00
 Gap=     0.340 Goal=   None    Shift=    0.000
 RMSDP=7.83D-07 MaxDP=1.10D-05 DE=-4.52D-10 OVMax= 1.03D-05

 Cycle   8  Pass 1  IDiag  1:
 E= -155.033684145210     Delta-E=       -0.000000001597 Rises=F Damp=F
 DIIS: error= 1.70D-06 at cycle   3 NSaved=   3.
 NSaved= 3 IEnMin= 3 EnMin= -155.033684145210     IErMin= 3 ErrMin= 1.70D-06
 ErrMax= 1.70D-06  0.00D+00 EMaxC= 1.00D-01 BMatC= 1.35D-10 BMatP= 2.15D-09
 IDIUse=1 WtCom= 1.00D+00 WtEn= 0.00D+00
 Coeff-Com:  0.129D+00 0.234D+00 0.637D+00
 Coeff:      0.129D+00 0.234D+00 0.637D+00
 Gap=     0.340 Goal=   None    Shift=    0.000
 RMSDP=1.68D-07 MaxDP=2.61D-06 DE=-1.60D-09 OVMax= 2.57D-06

 Cycle   9  Pass 1  IDiag  1:
 E= -155.033684145303     Delta-E=       -0.000000000092 Rises=F Damp=F
 DIIS: error= 3.33D-07 at cycle   4 NSaved=   4.
 NSaved= 4 IEnMin= 4 EnMin= -155.033684145303     IErMin= 4 ErrMin= 3.33D-07
 ErrMax= 3.33D-07  0.00D+00 EMaxC= 1.00D-01 BMatC= 6.10D-12 BMatP= 1.35D-10
 IDIUse=1 WtCom= 1.00D+00 WtEn= 0.00D+00
 Coeff-Com:  0.118D-01 0.518D-01 0.230D+00 0.707D+00
 Coeff:      0.118D-01 0.518D-01 0.230D+00 0.707D+00
 Gap=     0.340 Goal=   None    Shift=    0.000
 RMSDP=5.24D-08 MaxDP=6.98D-07 DE=-9.22D-11 OVMax= 8.49D-07

 Cycle  10  Pass 1  IDiag  1:
 E= -155.033684145307     Delta-E=       -0.000000000005 Rises=F Damp=F
 DIIS: error= 1.63D-07 at cycle   5 NSaved=   5.
 NSaved= 5 IEnMin= 5 EnMin= -155.033684145307     IErMin= 5 ErrMin= 1.63D-07
 ErrMax= 1.63D-07  0.00D+00 EMaxC= 1.00D-01 BMatC= 1.31D-12 BMatP= 6.10D-12
 IDIUse=1 WtCom= 1.00D+00 WtEn= 0.00D+00
 Coeff-Com: -0.960D-02-0.119D-02 0.401D-01 0.362D+00 0.609D+00
 Coeff:     -0.960D-02-0.119D-02 0.401D-01 0.362D+00 0.609D+00
 Gap=     0.340 Goal=   None    Shift=    0.000
 RMSDP=1.68D-08 MaxDP=2.34D-07 DE=-4.63D-12 OVMax= 2.67D-07

 Cycle  11  Pass 1  IDiag  1:
 E= -155.033684145309     Delta-E=       -0.000000000002 Rises=F Damp=F
 DIIS: error= 3.74D-09 at cycle   6 NSaved=   6.
 NSaved= 6 IEnMin= 6 EnMin= -155.033684145309     IErMin= 6 ErrMin= 3.74D-09
 ErrMax= 3.74D-09  0.00D+00 EMaxC= 1.00D-01 BMatC= 7.01D-16 BMatP= 1.31D-12
 IDIUse=1 WtCom= 1.00D+00 WtEn= 0.00D+00
 Coeff-Com: -0.562D-03-0.654D-03-0.122D-02 0.366D-02 0.161D-01 0.983D+00
 Coeff:     -0.562D-03-0.654D-03-0.122D-02 0.366D-02 0.161D-01 0.983D+00
 Gap=     0.340 Goal=   None    Shift=    0.000
 RMSDP=1.13D-09 MaxDP=1.66D-08 DE=-1.51D-12 OVMax= 2.44D-08

 SCF Done:  E(RB3LYP) =  -155.033684145     A.U. after   11 cycles
            NFock= 11  Conv=0.11D-08     -V/T= 2.0092
 KE= 1.536256476048D+02 PE=-5.252284937474D+02 EE= 1.349089162799D+02
 Leave Link  502 at Sun Apr 14 13:00:53 2024, MaxMem=  1073741824 cpu:               3.5 elap:               1.7
 (Enter /usr/local/g16/l701.exe)
 ... and contract with generalized density number  0.
 Compute integral first derivatives.
 Leave Link  701 at Sun Apr 14 13:00:53 2024, MaxMem=  1073741824 cpu:               0.1 elap:               0.1
 (Enter /usr/local/g16/l702.exe)
 L702 exits ... SP integral derivatives will be done elsewhere.
 Leave Link  702 at Sun Apr 14 13:00:53 2024, MaxMem=  1073741824 cpu:               0.0 elap:               0.0
 (Enter /usr/local/g16/l703.exe)
 Integral derivatives from FoFJK, PRISM(SPDF).
 Compute integral first derivatives, UseDBF=F ICtDFT=           0.
 Calling FoFJK, ICntrl=      2127 FMM=F ISym2X=1 I1Cent= 0 IOpClX= 0 NMat=1 NMatS=1 NMatT=0.
 FoFJK:  IHMeth= 1 ICntrl=    2127 DoSepK=F KAlg= 0 I1Cent=           0 FoldK=F
 IRaf=         0 NMat=       1 IRICut=       1 DoRegI=T DoRafI=F ISym2E= 1 IDoP0=0 IntGTp=1.
 FoFCou: FMM=F IPFlag=           0 FMFlag=      100000 FMFlg1=         800
         NFxFlg=           0 DoJE=F BraDBF=F KetDBF=F FulRan=T
         wScrn=  0.000000 ICntrl=      2127 IOpCl=  0 I1Cent=           0 NGrid=           0
         NMat0=    1 NMatS0=      1 NMatT0=    0 NMatD0=    1 NMtDS0=    0 NMtDT0=    0
 Petite list used in FoFCou.
 Leave Link  703 at Sun Apr 14 13:00:54 2024, MaxMem=  1073741824 cpu:               1.0 elap:               0.5
 (Enter /usr/local/g16/l716.exe)
 Dipole        =-1.04073808D-02 6.13058495D-01-1.99840144D-15
 ***** Axes restored to original set *****
 -------------------------------------------------------------------
 Center     Atomic                   Forces (Hartrees/Bohr)
 Number     Number              X              Y              Z
 -------------------------------------------------------------------
      1        6          -0.000911670   -0.001582473   -0.001026780
      2        6           0.000543247    0.000942966    0.003513056
      3        1           0.000118868    0.000133023    0.000247878
      4        1           0.000055451    0.000169558    0.000247878
      5        1          -0.000051558   -0.000089495   -0.000135229
      6        8          -0.001120526   -0.001945004    0.003046489
      7        1          -0.000345308   -0.000599385   -0.002581213
      8        1           0.000749488    0.001546622   -0.001656039
      9        1           0.000962009    0.001424187   -0.001656039
 -------------------------------------------------------------------
 Cartesian Forces:  Max     0.003513056 RMS     0.001374158
 Leave Link  716 at Sun Apr 14 13:00:54 2024, MaxMem=  1073741824 cpu:               0.0 elap:               0.0
 (Enter /usr/local/g16/l103.exe)

 GradGradGradGradGradGradGradGradGradGradGradGradGradGradGradGradGradGrad
 Berny optimization.
 Using GEDIIS/GDIIS optimizer.
 FormGI is forming the generalized inverse of G from B-inverse, IUseBI=4.
 Internal  Forces:  Max     0.003877978 RMS     0.001247388
 Search for a local minimum.
 Step number   2 out of a maximum of   43
 All quantities printed in internal units (Hartrees-Bohrs-Radians)
 RMS Force = .12474D-02 SwitMx=.10000D-02 MixMth= 1
 Mixed Optimization -- RFO/linear search
 Update second derivatives using D2CorX and points    1    2
 DE= -2.81D-03 DEPred=-3.31D-03 R= 8.51D-01
 TightC=F SS=  1.41D+00  RLast= 1.91D-01 DXNew= 5.0454D-01 5.7399D-01
 Trust test= 8.51D-01 RLast= 1.91D-01 DXMaxT set to 5.05D-01
 ITU=  1  0
 Use linear search instead of GDIIS.
     Eigenvalues ---    0.00345   0.01580   0.05313   0.05579   0.05617
     Eigenvalues ---    0.06291   0.12288   0.13649   0.15966   0.16000
     Eigenvalues ---    0.16000   0.16160   0.22004   0.29715   0.31548
     Eigenvalues ---    0.31902   0.32117   0.32132   0.32240   0.45420
     Eigenvalues ---    0.56412
 RFO step:  Lambda=-1.61108401D-04 EMin= 3.45154088D-03
 Quartic linear search produced a step of -0.10457.
 Iteration  1 RMS(Cart)=  0.00915347 RMS(Int)=  0.00007604
 Iteration  2 RMS(Cart)=  0.00006807 RMS(Int)=  0.00004147
 Iteration  3 RMS(Cart)=  0.00000000 RMS(Int)=  0.00004147
 ITry= 1 IFail=0 DXMaxC= 2.43D-02 DCOld= 1.00D+10 DXMaxT= 5.05D-01 DXLimC= 3.00D+00 Rises=F
 ClnCor:  largest displacement from symmetrization is 2.41D-09 for atom     9.
 Variable       Old X    -DE/DX   Delta X   Delta X   Delta X     New X
                                 (Linear)    (Quad)   (Total)
    R1        2.86105   0.00388   0.00352   0.00740   0.01092   2.87197
    R2        2.69537  -0.00294  -0.00353  -0.00147  -0.00501   2.69036
    R3        2.08528  -0.00041   0.00261  -0.00446  -0.00185   2.08343
    R4        2.08528  -0.00041   0.00261  -0.00446  -0.00185   2.08343
    R5        2.06896   0.00020   0.00388  -0.00436  -0.00048   2.06848
    R6        2.06896   0.00020   0.00388  -0.00436  -0.00048   2.06848
    R7        2.07056   0.00005   0.00373  -0.00459  -0.00086   2.06970
    R8        1.82615   0.00258  -0.00476   0.00988   0.00513   1.83128
    A1        1.88406   0.00007   0.00272  -0.00493  -0.00223   1.88183
    A2        1.90437   0.00179   0.00396   0.00997   0.01390   1.91827
    A3        1.90437   0.00179   0.00396   0.00997   0.01390   1.91827
    A4        1.95163  -0.00157  -0.00709  -0.00638  -0.01340   1.93823
    A5        1.95163  -0.00157  -0.00709  -0.00638  -0.01340   1.93823
    A6        1.86713  -0.00034   0.00341  -0.00131   0.00222   1.86935
    A7        1.92762   0.00027   0.00113   0.00002   0.00116   1.92877
    A8        1.92762   0.00027   0.00113   0.00002   0.00116   1.92877
    A9        1.93126  -0.00031   0.00032  -0.00212  -0.00180   1.92946
   A10        1.88850  -0.00028  -0.00052  -0.00097  -0.00147   1.88703
   A11        1.89387   0.00003  -0.00109   0.00156   0.00047   1.89435
   A12        1.89387   0.00003  -0.00109   0.00156   0.00047   1.89435
   A13        1.88990  -0.00128  -0.00146  -0.00527  -0.00673   1.88316
    D1       -1.04418   0.00000  -0.00041   0.00059   0.00018  -1.04400
    D2        1.04418  -0.00000   0.00041  -0.00059  -0.00018   1.04400
    D3        3.14159  -0.00000  -0.00000  -0.00000   0.00000   3.14159
    D4        1.08022  -0.00079  -0.00500  -0.00422  -0.00922   1.07100
    D5       -3.11461  -0.00080  -0.00417  -0.00539  -0.00957  -3.12418
    D6       -1.01719  -0.00080  -0.00458  -0.00481  -0.00940  -1.02659
    D7        3.11461   0.00080   0.00417   0.00539   0.00957   3.12418
    D8       -1.08022   0.00079   0.00500   0.00422   0.00922  -1.07100
    D9        1.01719   0.00080   0.00458   0.00481   0.00940   1.02659
   D10        3.14159   0.00000   0.00000  -0.00000   0.00000   3.14159
   D11        1.04670  -0.00130  -0.00223  -0.00526  -0.00762   1.03908
   D12       -1.04670   0.00130   0.00223   0.00526   0.00762  -1.03908
         Item               Value     Threshold  Converged?
 Maximum Force            0.003878     0.000450     NO 
 RMS     Force            0.001247     0.000300     NO 
 Maximum Displacement     0.024299     0.001800     NO 
 RMS     Displacement     0.009153     0.001200     NO 
 Predicted change in Energy=-1.182549D-04
 Lowest energy point so far.  Saving SCF results.
 GradGradGradGradGradGradGradGradGradGradGradGradGradGradGradGradGradGrad

 Leave Link  103 at Sun Apr 14 13:00:54 2024, MaxMem=  1073741824 cpu:               0.0 elap:               0.0
 (Enter /usr/local/g16/l202.exe)
                          Input orientation:                          
 ---------------------------------------------------------------------
 Center     Atomic      Atomic             Coordinates (Angstroms)
 Number     Number       Type             X           Y           Z
 ---------------------------------------------------------------------
      1          6           0       -0.003427   -0.005948    0.000408
      2          6           0        0.000335    0.000582    1.520171
      3          1           0        1.026477    0.006457    1.901135
      4          1           0       -0.509313    0.891233    1.901135
      5          1           0       -0.510648   -0.886380    1.909709
      6          8           0        0.672072    1.166580   -0.442016
      7          1           0        0.670318    1.163535   -1.411079
      8          1           0        0.496191   -0.915311   -0.372357
      9          1           0       -1.040724   -0.029888   -0.372357
 ---------------------------------------------------------------------
                    Distance matrix (angstroms):
                    1          2          3          4          5
     1  C    0.000000
     2  C    1.519781   0.000000
     3  H    2.161855   1.094593   0.000000
     4  H    2.161855   1.094593   1.772422   0.000000
     5  H    2.162837   1.095238   1.777634   1.777634   0.000000
     6  O    1.423678   2.379276   2.638530   2.638530   3.338275
     7  H    1.952926   3.223905   3.526534   3.526534   4.077311
     8  H    1.102503   2.160184   2.509906   3.073013   2.494471
     9  H    1.102503   2.160184   3.073013   2.509906   2.494471
                    6          7          8          9
     6  O    0.000000
     7  H    0.969070   0.000000
     8  H    2.090468   2.330422   0.000000
     9  H    2.090468   2.330422   1.773720   0.000000
 Stoichiometry    C2H6O
 Framework group  CS[SG(C2H2O),X(H4)]
 Deg. of freedom    13
 Full point group                 CS      NOp   2
 RotChk:  IX=0 Diff= 1.43D-03
 Largest Abelian subgroup         CS      NOp   2
 Largest concise Abelian subgroup CS      NOp   2
                         Standard orientation:                         
 ---------------------------------------------------------------------
 Center     Atomic      Atomic             Coordinates (Angstroms)
 Number     Number       Type             X           Y           Z
 ---------------------------------------------------------------------
      1          6           0       -0.000000    0.555146   -0.000000
      2          6           0        1.172074   -0.412313    0.000000
      3          1           0        1.139739   -1.053967    0.886211
      4          1           0        1.139739   -1.053967   -0.886211
      5          1           0        2.121410    0.133861   -0.000000
      6          8           0       -1.198820   -0.212767    0.000000
      7          1           0       -1.947000    0.403125    0.000000
      8          1           0        0.052112    1.208045    0.886860
      9          1           0        0.052112    1.208045   -0.886860
 ---------------------------------------------------------------------
 Rotational constants (GHZ):          34.9882146           9.3562297           8.1351688
 Leave Link  202 at Sun Apr 14 13:00:54 2024, MaxMem=  1073741824 cpu:               0.0 elap:               0.0
 (Enter /usr/local/g16/l301.exe)
 Standard basis: 6-31G(d) (6D, 7F)
 Ernie: Thresh=  0.10000D-02 Tol=  0.10000D-05 Strict=F.
 There are    41 symmetry adapted cartesian basis functions of A'  symmetry.
 There are    16 symmetry adapted cartesian basis functions of A"  symmetry.
 There are    41 symmetry adapted basis functions of A'  symmetry.
 There are    16 symmetry adapted basis functions of A"  symmetry.
    57 basis functions,   108 primitive gaussians,    57 cartesian basis functions
    13 alpha electrons       13 beta electrons
       nuclear repulsion energy        81.6303307492 Hartrees.
 IExCor=  402 DFT=T Ex+Corr=B3LYP ExCW=0 ScaHFX=  0.200000
 ScaDFX=  0.800000  0.720000  1.000000  0.810000 ScalE2=  1.000000  1.000000
 IRadAn=      5 IRanWt=     -1 IRanGd=            0 ICorTp=0 IEmpDi=  4
 NAtoms=    9 NActive=    9 NUniq=    7 SFac= 1.65D+00 NAtFMM=   60 NAOKFM=F Big=F
 Integral buffers will be    131072 words long.
 Raffenetti 2 integral format.
 Two-electron integral symmetry is turned on.
 Leave Link  301 at Sun Apr 14 13:00:54 2024, MaxMem=  1073741824 cpu:               0.1 elap:               0.0
 (Enter /usr/local/g16/l302.exe)
 NPDir=0 NMtPBC=     1 NCelOv=     1 NCel=       1 NClECP=     1 NCelD=      1
         NCelK=      1 NCelE2=     1 NClLst=     1 CellRange=     0.0.
 One-electron integrals computed using PRISM.
 One-electron integral symmetry used in STVInt
 NBasis=    57 RedAO= T EigKep=  5.99D-03  NBF=    41    16
 NBsUse=    57 1.00D-06 EigRej= -1.00D+00 NBFU=    41    16
 Precomputing XC quadrature grid using
 IXCGrd= 4 IRadAn=           5 IRanWt=          -1 IRanGd=           0 AccXCQ= 0.00D+00.
 Generated NRdTot=       0 NPtTot=           0 NUsed=           0 NTot=          32
 NSgBfM=    57    57    57    57    57 MxSgAt=     9 MxSgA2=     9.
 Leave Link  302 at Sun Apr 14 13:00:54 2024, MaxMem=  1073741824 cpu:               0.2 elap:               0.1
 (Enter /usr/local/g16/l303.exe)
 DipDrv:  MaxL=1.
 Leave Link  303 at Sun Apr 14 13:00:54 2024, MaxMem=  1073741824 cpu:               0.0 elap:               0.0
 (Enter /usr/local/g16/l401.exe)
 Initial guess from the checkpoint file:  "ethanol-opt.chk"
 B after Tr=     0.000000   -0.000000    0.000000
         Rot=    1.000000    0.000000    0.000000    0.000954 Ang=   0.11 deg.
 Guess basis will be translated and rotated to current coordinates.
 JPrj=2 DoOrth=T DoCkMO=T.
 Initial guess orbital symmetries:
       Occupied  (A') (A') (A') (A') (A') (A') (A') (A") (A') (A')
                 (A") (A') (A")
       Virtual   (A') (A') (A") (A') (A') (A") (A') (A') (A') (A")
                 (A') (A') (A') (A") (A') (A") (A') (A') (A") (A')
                 (A') (A") (A') (A') (A') (A") (A') (A') (A") (A')
                 (A") (A') (A') (A") (A') (A") (A') (A") (A') (A')
                 (A') (A') (A') (A')
 The electronic state of the initial guess is 1-A'.
 Generating alternative initial guess.
 ExpMin= 1.61D-01 ExpMax= 5.48D+03 ExpMxC= 8.25D+02 IAcc=3 IRadAn=         5 AccDes= 0.00D+00
 Harris functional with IExCor=  402 and IRadAn=       5 diagonalized for initial guess.
 HarFok:  IExCor=  402 AccDes= 0.00D+00 IRadAn=         5 IDoV= 1 UseB2=F ITyADJ=14
 ICtDFT=  3500011 ScaDFX=  1.000000  1.000000  1.000000  1.000000
 FoFCou: FMM=F IPFlag=           0 FMFlag=      100000 FMFlg1=           0
         NFxFlg=           0 DoJE=T BraDBF=F KetDBF=T FulRan=T
         wScrn=  0.000000 ICntrl=       500 IOpCl=  0 I1Cent=   200000004 NGrid=           0
         NMat0=    1 NMatS0=      1 NMatT0=    0 NMatD0=    1 NMtDS0=    0 NMtDT0=    0
 Petite list used in FoFCou.
 Harris En= -155.076234760373    
 Leave Link  401 at Sun Apr 14 13:00:54 2024, MaxMem=  1073741824 cpu:               0.6 elap:               0.3
 (Enter /usr/local/g16/l502.exe)
 Keep R1 ints in memory in symmetry-blocked form, NReq=3134121.
 FoFCou: FMM=F IPFlag=           0 FMFlag=           0 FMFlg1=           0
         NFxFlg=           0 DoJE=F BraDBF=F KetDBF=F FulRan=T
         wScrn=  0.000000 ICntrl=       600 IOpCl=  0 I1Cent=           0 NGrid=           0
         NMat0=    1 NMatS0=   1653 NMatT0=    0 NMatD0=    1 NMtDS0=    0 NMtDT0=    0
 Petite list used in FoFCou.
 Closed shell SCF:
 Using DIIS extrapolation, IDIIS=  1040.
 NGot=  1073741824 LenX=  1073016769 LenY=  1073013079
 Requested convergence on RMS density matrix=1.00D-08 within 128 cycles.
 Requested convergence on MAX density matrix=1.00D-06.
 Requested convergence on             energy=1.00D-06.
 No special actions if energy rises.
 Integral accuracy reduced to 1.0D-05 until final iterations.

 Cycle   1  Pass 0  IDiag  1:
 E= -155.033765572413    
 DIIS: error= 6.48D-04 at cycle   1 NSaved=   1.
 NSaved= 1 IEnMin= 1 EnMin= -155.033765572413     IErMin= 1 ErrMin= 6.48D-04
 ErrMax= 6.48D-04  0.00D+00 EMaxC= 1.00D-01 BMatC= 2.75D-05 BMatP= 2.75D-05
 IDIUse=3 WtCom= 9.94D-01 WtEn= 6.48D-03
 Coeff-Com:  0.100D+01
 Coeff-En:   0.100D+01
 Coeff:      0.100D+01
 Gap=     0.338 Goal=   None    Shift=    0.000
 RMSDP=1.34D-04 MaxDP=1.43D-03              OVMax= 1.87D-03

 Cycle   2  Pass 0  IDiag  1:
 E= -155.033799161893     Delta-E=       -0.000033589480 Rises=F Damp=F
 DIIS: error= 2.65D-04 at cycle   2 NSaved=   2.
 NSaved= 2 IEnMin= 2 EnMin= -155.033799161893     IErMin= 2 ErrMin= 2.65D-04
 ErrMax= 2.65D-04  0.00D+00 EMaxC= 1.00D-01 BMatC= 4.28D-06 BMatP= 2.75D-05
 IDIUse=3 WtCom= 9.97D-01 WtEn= 2.65D-03
 Coeff-Com:  0.207D+00 0.793D+00
 Coeff-En:   0.000D+00 0.100D+01
 Coeff:      0.206D+00 0.794D+00
 Gap=     0.338 Goal=   None    Shift=    0.000
 RMSDP=4.65D-05 MaxDP=7.20D-04 DE=-3.36D-05 OVMax= 7.18D-04

 Cycle   3  Pass 0  IDiag  1:
 E= -155.033800207443     Delta-E=       -0.000001045549 Rises=F Damp=F
 DIIS: error= 2.47D-04 at cycle   3 NSaved=   3.
 NSaved= 3 IEnMin= 3 EnMin= -155.033800207443     IErMin= 3 ErrMin= 2.47D-04
 ErrMax= 2.47D-04  0.00D+00 EMaxC= 1.00D-01 BMatC= 3.12D-06 BMatP= 4.28D-06
 IDIUse=3 WtCom= 9.98D-01 WtEn= 2.47D-03
 Coeff-Com:  0.236D-01 0.458D+00 0.518D+00
 Coeff-En:   0.000D+00 0.407D+00 0.593D+00
 Coeff:      0.236D-01 0.458D+00 0.518D+00
 Gap=     0.338 Goal=   None    Shift=    0.000
 RMSDP=2.56D-05 MaxDP=4.01D-04 DE=-1.05D-06 OVMax= 3.66D-04

 Cycle   4  Pass 0  IDiag  1:
 E= -155.033802398885     Delta-E=       -0.000002191443 Rises=F Damp=F
 DIIS: error= 3.56D-05 at cycle   4 NSaved=   4.
 NSaved= 4 IEnMin= 4 EnMin= -155.033802398885     IErMin= 4 ErrMin= 3.56D-05
 ErrMax= 3.56D-05  0.00D+00 EMaxC= 1.00D-01 BMatC= 7.63D-08 BMatP= 3.12D-06
 IDIUse=1 WtCom= 1.00D+00 WtEn= 0.00D+00
 Coeff-Com: -0.104D-01 0.912D-01 0.190D+00 0.729D+00
 Coeff:     -0.104D-01 0.912D-01 0.190D+00 0.729D+00
 Gap=     0.338 Goal=   None    Shift=    0.000
 RMSDP=4.35D-06 MaxDP=5.13D-05 DE=-2.19D-06 OVMax= 6.51D-05

 Initial convergence to 1.0D-05 achieved.  Increase integral accuracy.
 Cycle   5  Pass 1  IDiag  1:
 E= -155.033796434177     Delta-E=        0.000005964708 Rises=F Damp=F
 DIIS: error= 6.71D-06 at cycle   1 NSaved=   1.
 NSaved= 1 IEnMin= 1 EnMin= -155.033796434177     IErMin= 1 ErrMin= 6.71D-06
 ErrMax= 6.71D-06  0.00D+00 EMaxC= 1.00D-01 BMatC= 3.30D-09 BMatP= 3.30D-09
 IDIUse=1 WtCom= 1.00D+00 WtEn= 0.00D+00
 Coeff-Com:  0.100D+01
 Coeff:      0.100D+01
 Gap=     0.338 Goal=   None    Shift=    0.000
 RMSDP=4.35D-06 MaxDP=5.13D-05 DE= 5.96D-06 OVMax= 2.83D-05

 Cycle   6  Pass 1  IDiag  1:
 E= -155.033796433381     Delta-E=        0.000000000796 Rises=F Damp=F
 DIIS: error= 8.11D-06 at cycle   2 NSaved=   2.
 NSaved= 2 IEnMin= 1 EnMin= -155.033796434177     IErMin= 1 ErrMin= 6.71D-06
 ErrMax= 8.11D-06  0.00D+00 EMaxC= 1.00D-01 BMatC= 4.24D-09 BMatP= 3.30D-09
 IDIUse=1 WtCom= 1.00D+00 WtEn= 0.00D+00
 Coeff-Com:  0.532D+00 0.468D+00
 Coeff:      0.532D+00 0.468D+00
 Gap=     0.338 Goal=   None    Shift=    0.000
 RMSDP=9.51D-07 MaxDP=1.48D-05 DE= 7.96D-10 OVMax= 1.55D-05

 Cycle   7  Pass 1  IDiag  1:
 E= -155.033796437361     Delta-E=       -0.000000003979 Rises=F Damp=F
 DIIS: error= 6.27D-07 at cycle   3 NSaved=   3.
 NSaved= 3 IEnMin= 3 EnMin= -155.033796437361     IErMin= 3 ErrMin= 6.27D-07
 ErrMax= 6.27D-07  0.00D+00 EMaxC= 1.00D-01 BMatC= 2.11D-11 BMatP= 3.30D-09
 IDIUse=1 WtCom= 1.00D+00 WtEn= 0.00D+00
 Coeff-Com:  0.101D+00 0.115D+00 0.784D+00
 Coeff:      0.101D+00 0.115D+00 0.784D+00
 Gap=     0.338 Goal=   None    Shift=    0.000
 RMSDP=1.03D-07 MaxDP=1.63D-06 DE=-3.98D-09 OVMax= 1.41D-06

 Cycle   8  Pass 1  IDiag  1:
 E= -155.033796437367     Delta-E=       -0.000000000007 Rises=F Damp=F
 DIIS: error= 4.92D-07 at cycle   4 NSaved=   4.
 NSaved= 4 IEnMin= 4 EnMin= -155.033796437367     IErMin= 4 ErrMin= 4.92D-07
 ErrMax= 4.92D-07  0.00D+00 EMaxC= 1.00D-01 BMatC= 1.25D-11 BMatP= 2.11D-11
 IDIUse=1 WtCom= 1.00D+00 WtEn= 0.00D+00
 Coeff-Com:  0.623D-02 0.208D-01 0.462D+00 0.511D+00
 Coeff:      0.623D-02 0.208D-01 0.462D+00 0.511D+00
 Gap=     0.338 Goal=   None    Shift=    0.000
 RMSDP=4.85D-08 MaxDP=7.36D-07 DE=-6.93D-12 OVMax= 6.73D-07

 Cycle   9  Pass 1  IDiag  1:
 E= -155.033796437376     Delta-E=       -0.000000000009 Rises=F Damp=F
 DIIS: error= 4.34D-08 at cycle   5 NSaved=   5.
 NSaved= 5 IEnMin= 5 EnMin= -155.033796437376     IErMin= 5 ErrMin= 4.34D-08
 ErrMax= 4.34D-08  0.00D+00 EMaxC= 1.00D-01 BMatC= 1.53D-13 BMatP= 1.25D-11
 IDIUse=1 WtCom= 1.00D+00 WtEn= 0.00D+00
 Coeff-Com: -0.352D-02-0.165D-03 0.947D-01 0.164D+00 0.745D+00
 Coeff:     -0.352D-02-0.165D-03 0.947D-01 0.164D+00 0.745D+00
 Gap=     0.338 Goal=   None    Shift=    0.000
 RMSDP=6.86D-09 MaxDP=5.86D-08 DE=-8.64D-12 OVMax= 1.24D-07

 SCF Done:  E(RB3LYP) =  -155.033796437     A.U. after    9 cycles
            NFock=  9  Conv=0.69D-08     -V/T= 2.0092
 KE= 1.536231975957D+02 PE=-5.251716378746D+02 EE= 1.348843130923D+02
 Leave Link  502 at Sun Apr 14 13:00:56 2024, MaxMem=  1073741824 cpu:               2.9 elap:               1.5
 (Enter /usr/local/g16/l701.exe)
 ... and contract with generalized density number  0.
 Compute integral first derivatives.
 Leave Link  701 at Sun Apr 14 13:00:56 2024, MaxMem=  1073741824 cpu:               0.1 elap:               0.1
 (Enter /usr/local/g16/l702.exe)
 L702 exits ... SP integral derivatives will be done elsewhere.
 Leave Link  702 at Sun Apr 14 13:00:56 2024, MaxMem=  1073741824 cpu:               0.0 elap:               0.0
 (Enter /usr/local/g16/l703.exe)
 Integral derivatives from FoFJK, PRISM(SPDF).
 Compute integral first derivatives, UseDBF=F ICtDFT=           0.
 Calling FoFJK, ICntrl=      2127 FMM=F ISym2X=1 I1Cent= 0 IOpClX= 0 NMat=1 NMatS=1 NMatT=0.
 FoFJK:  IHMeth= 1 ICntrl=    2127 DoSepK=F KAlg= 0 I1Cent=           0 FoldK=F
 IRaf=         0 NMat=       1 IRICut=       1 DoRegI=T DoRafI=F ISym2E= 1 IDoP0=0 IntGTp=1.
 FoFCou: FMM=F IPFlag=           0 FMFlag=      100000 FMFlg1=         800
         NFxFlg=           0 DoJE=F BraDBF=F KetDBF=F FulRan=T
         wScrn=  0.000000 ICntrl=      2127 IOpCl=  0 I1Cent=           0 NGrid=           0
         NMat0=    1 NMatS0=      1 NMatT0=    0 NMatD0=    1 NMtDS0=    0 NMtDT0=    0
 Petite list used in FoFCou.
 Leave Link  703 at Sun Apr 14 13:00:56 2024, MaxMem=  1073741824 cpu:               1.0 elap:               0.5
 (Enter /usr/local/g16/l716.exe)
 Dipole        =-7.39869936D-03 6.14006414D-01-4.44089210D-16
 ***** Axes restored to original set *****
 -------------------------------------------------------------------
 Center     Atomic                   Forces (Hartrees/Bohr)
 Number     Number              X              Y              Z
 -------------------------------------------------------------------
      1        6          -0.000185800   -0.000322510    0.000260721
      2        6          -0.000152277   -0.000264322    0.000065453
      3        1           0.000317377    0.000005163   -0.000172611
      4        1          -0.000154736    0.000277150   -0.000172611
      5        1          -0.000164233   -0.000285074    0.000162829
      6        8           0.000332378    0.000576941   -0.000316991
      7        1           0.000021108    0.000036639    0.000030362
      8        1           0.000160827   -0.000108626    0.000071424
      9        1          -0.000174645    0.000084641    0.000071424
 -------------------------------------------------------------------
 Cartesian Forces:  Max     0.000576941 RMS     0.000222091
 Leave Link  716 at Sun Apr 14 13:00:56 2024, MaxMem=  1073741824 cpu:               0.0 elap:               0.0
 (Enter /usr/local/g16/l103.exe)

 GradGradGradGradGradGradGradGradGradGradGradGradGradGradGradGradGradGrad
 Berny optimization.
 Using GEDIIS/GDIIS optimizer.
 FormGI is forming the generalized inverse of G from B-inverse, IUseBI=4.
 Internal  Forces:  Max     0.000761555 RMS     0.000204070
 Search for a local minimum.
 Step number   3 out of a maximum of   43
 All quantities printed in internal units (Hartrees-Bohrs-Radians)
 RMS Force = .20407D-03 SwitMx=.10000D-02 MixMth= 2
 Mixed Optimization -- En-DIIS/RFO-DIIS
 Update second derivatives using D2CorX and points    1    2    3
 DE= -1.12D-04 DEPred=-1.18D-04 R= 9.50D-01
 TightC=F SS=  1.41D+00  RLast= 4.04D-02 DXNew= 8.4853D-01 1.2126D-01
 Trust test= 9.50D-01 RLast= 4.04D-02 DXMaxT set to 5.05D-01
 ITU=  1  1  0
 Use linear search instead of GDIIS.
     Eigenvalues ---    0.00345   0.01580   0.05306   0.05583   0.05584
     Eigenvalues ---    0.06061   0.12318   0.13653   0.15819   0.16000
     Eigenvalues ---    0.16003   0.16853   0.22051   0.30272   0.31553
     Eigenvalues ---    0.31902   0.32056   0.32132   0.32161   0.47386
     Eigenvalues ---    0.56348
 RFO step:  Lambda=-4.47272163D-06 EMin= 3.45154088D-03
 Quartic linear search produced a step of -0.04999.
 Iteration  1 RMS(Cart)=  0.00121202 RMS(Int)=  0.00000353
 Iteration  2 RMS(Cart)=  0.00000165 RMS(Int)=  0.00000325
 Iteration  3 RMS(Cart)=  0.00000000 RMS(Int)=  0.00000325
 ITry= 1 IFail=0 DXMaxC= 3.26D-03 DCOld= 1.00D+10 DXMaxT= 5.05D-01 DXLimC= 3.00D+00 Rises=F
 ClnCor:  largest displacement from symmetrization is 6.96D-10 for atom     9.
 Variable       Old X    -DE/DX   Delta X   Delta X   Delta X     New X
                                 (Linear)    (Quad)   (Total)
    R1        2.87197  -0.00012  -0.00055   0.00044  -0.00010   2.87187
    R2        2.69036   0.00076   0.00025   0.00123   0.00148   2.69184
    R3        2.08343   0.00014   0.00009   0.00030   0.00039   2.08382
    R4        2.08343   0.00014   0.00009   0.00030   0.00039   2.08382
    R5        2.06848   0.00024   0.00002   0.00070   0.00072   2.06921
    R6        2.06848   0.00024   0.00002   0.00070   0.00072   2.06921
    R7        2.06970   0.00037   0.00004   0.00105   0.00109   2.07079
    R8        1.83128  -0.00003  -0.00026   0.00028   0.00002   1.83130
    A1        1.88183   0.00012   0.00011   0.00018   0.00029   1.88212
    A2        1.91827  -0.00012  -0.00069   0.00019  -0.00050   1.91777
    A3        1.91827  -0.00012  -0.00069   0.00019  -0.00050   1.91777
    A4        1.93823  -0.00000   0.00067  -0.00098  -0.00031   1.93792
    A5        1.93823  -0.00000   0.00067  -0.00098  -0.00031   1.93792
    A6        1.86935   0.00013  -0.00011   0.00140   0.00130   1.87065
    A7        1.92877  -0.00035  -0.00006  -0.00216  -0.00222   1.92655
    A8        1.92877  -0.00035  -0.00006  -0.00216  -0.00222   1.92655
    A9        1.92946   0.00020   0.00009   0.00139   0.00148   1.93094
   A10        1.88703   0.00029   0.00007   0.00092   0.00099   1.88801
   A11        1.89435   0.00012  -0.00002   0.00106   0.00104   1.89539
   A12        1.89435   0.00012  -0.00002   0.00106   0.00104   1.89539
   A13        1.88316   0.00008   0.00034  -0.00005   0.00029   1.88345
    D1       -1.04400   0.00005  -0.00001   0.00082   0.00081  -1.04319
    D2        1.04400  -0.00005   0.00001  -0.00082  -0.00081   1.04319
    D3        3.14159   0.00000   0.00000  -0.00000   0.00000   3.14159
    D4        1.07100   0.00004   0.00046  -0.00015   0.00032   1.07132
    D5       -3.12418  -0.00005   0.00048  -0.00179  -0.00131  -3.12548
    D6       -1.02659  -0.00001   0.00047  -0.00097  -0.00050  -1.02708
    D7        3.12418   0.00005  -0.00048   0.00179   0.00131   3.12548
    D8       -1.07100  -0.00004  -0.00046   0.00015  -0.00032  -1.07132
    D9        1.02659   0.00001  -0.00047   0.00097   0.00050   1.02708
   D10        3.14159  -0.00000  -0.00000   0.00000   0.00000   3.14159
   D11        1.03908   0.00008   0.00038   0.00024   0.00062   1.03970
   D12       -1.03908  -0.00008  -0.00038  -0.00024  -0.00062  -1.03970
[...]
         5        -0.0000     -0.0000      0.0000     -0.0000       90.00
         6         0.0000      0.0000     -0.0000      0.0000       90.00
         7         0.0000      0.0000      0.0000      0.0000       90.00
         8         0.0000      0.0000      0.0000      0.0000       90.00
         9         0.0000     -0.0000      0.0000      0.0000       90.00
        10         0.0000      0.0000     -0.0000      0.0000       90.00
        11        -0.0000     -0.0000      0.0000     -0.0000       90.00
        12        -0.0000      0.0000      0.0000      0.0000       90.00
        13        -0.0000     -0.0000      0.0000     -0.0000       90.00
        14        -0.0000     -0.0000      0.0000     -0.0000       90.00
        15        -0.0000      0.0000      0.0000      0.0000       90.00
        16        -0.0000     -0.0000     -0.0000     -0.0000       90.00
        17        -0.0000     -0.0000      0.0000     -0.0000       90.00
        18        -0.0000      0.0000     -0.0000     -0.0000       90.00
        19         0.0000     -0.0000     -0.0000     -0.0000       90.00
        20        -0.0000      0.0000      0.0000      0.0000       90.00
 1/2[<0|r|b>*<b|rxdel|0> + (<0|rxdel|b>*<b|r|0>)*]
 Rotatory Strengths (R) in cgs (10**-40 erg-esu-cm/Gauss)
       state          XX          YY          ZZ     R(length)
         1        -0.0000     -0.0000      0.0000      0.0000
         2        -0.0000      0.0000      0.0000      0.0000
         3        -0.0000      0.0000     -0.0000      0.0000
         4        -0.0000     -0.0000     -0.0000     -0.0000
         5        -0.0000     -0.0000     -0.0000     -0.0000
         6        -0.0000     -0.0000      0.0000      0.0000
         7         0.0000     -0.0000      0.0000      0.0000
         8         0.0000     -0.0000      0.0000      0.0000
         9         0.0000     -0.0000      0.0000      0.0000
        10         0.0000      0.0000      0.0000      0.0000
        11         0.0000      0.0000     -0.0000     -0.0000
        12         0.0000      0.0000     -0.0000      0.0000
        13        -0.0000      0.0000     -0.0000     -0.0000
        14         0.0000     -0.0000     -0.0000     -0.0000
        15         0.0000     -0.0000     -0.0000      0.0000
        16        -0.0000     -0.0000      0.0000     -0.0000
        17        -0.0000     -0.0000     -0.0000     -0.0000
        18         0.0000     -0.0000     -0.0000     -0.0000
        19        -0.0000     -0.0000      0.0000     -0.0000
        20         0.0000     -0.0000     -0.0000      0.0000
  1/2[<0|del|b>*<b|r|0> + (<0|r|b>*<b|del|0>)*] (Au)
       state          X           Y           Z        Dip. S.   Osc.(frdel)
         1        -0.0000     -0.0000     -0.0000      0.0000      0.0000
         2        -0.0000      0.0000      0.0026     -0.0026     -0.0017
         3        -0.0000     -0.0000     -0.0000      0.0000      0.0000
         4        -0.0000     -0.0000     -0.0000      0.0000      0.0000
         5        -0.0000      0.0000     -0.0274      0.0274      0.0182
         6        -0.0000     -0.0000     -0.0000      0.0000      0.0000
         7        -0.0141     -0.0026     -0.0000      0.0167      0.0112
         8        -0.0000     -0.0000     -0.0000      0.0000      0.0000
         9        -0.0000      0.0000     -0.0000      0.0000      0.0000
        10        -0.0009     -0.0939     -0.0000      0.0948      0.0632
        11         0.0000     -0.0000     -0.0000      0.0000      0.0000
        12        -0.0000     -0.0000     -0.0942      0.0942      0.0628
        13         0.0000      0.0000     -0.0000      0.0000      0.0000
        14         0.0000     -0.0000     -0.0025      0.0025      0.0017
        15        -0.0000     -0.0000     -0.0000      0.0000      0.0000
        16        -0.0000     -0.0000     -0.0056      0.0056      0.0037
        17        -0.0000     -0.0000      0.0000      0.0000      0.0000
        18        -0.0089     -0.0188     -0.0000      0.0277      0.0184
        19        -0.0000     -0.0000     -0.0044      0.0044      0.0029
        20        -0.0950     -0.0204     -0.0000      0.1154      0.0769

 Excitation energies and oscillator strengths:
 
 Excited State   1:      Triplet-A"     7.0739 eV  175.27 nm  f=0.0000  <S**2>=2.000
      13 -> 14         0.68858
      13 -> 15         0.13008
 This state for optimization and/or second-order correction.
 Total Energy, E(TD-HF/TD-DFT) =  -154.773837176    
 Copying the excited state density for this state as the 1-particle RhoCI density.
 
 Excited State   2:      Singlet-A"     7.6607 eV  161.84 nm  f=0.0006  <S**2>=0.000
      13 -> 14         0.70051
 
 Excited State   3:      Triplet-A"     8.7439 eV  141.79 nm  f=0.0000  <S**2>=2.000
      13 -> 14        -0.13450
      13 -> 15         0.64458
      13 -> 17         0.20164
 
 Excited State   4:      Triplet-A'     8.8628 eV  139.89 nm  f=0.0000  <S**2>=2.000
       9 -> 14        -0.11169
      12 -> 14         0.67946
      12 -> 15         0.10103
 
 Excited State   5:      Singlet-A"     9.1986 eV  134.79 nm  f=0.0143  <S**2>=0.000
      13 -> 15         0.69878
 
 Excited State   6:      Triplet-A'     9.6308 eV  128.74 nm  f=0.0000  <S**2>=2.000
      12 -> 15        -0.14503
      13 -> 16         0.63670
      13 -> 19         0.19833
 
 Excited State   7:      Singlet-A'     9.6367 eV  128.66 nm  f=0.0096  <S**2>=0.000
      12 -> 14         0.70265
 
 Excited State   8:      Triplet-A"    10.0338 eV  123.57 nm  f=0.0000  <S**2>=2.000
      11 -> 14        -0.22057
      13 -> 15        -0.16566
      13 -> 17         0.52580
      13 -> 18        -0.21722
      13 -> 20         0.27226
 
 Excited State   9:      Triplet-A"    10.2685 eV  120.74 nm  f=0.0000  <S**2>=2.000
      13 -> 15         0.17188
      13 -> 17        -0.34951
      13 -> 18        -0.29089
      13 -> 20         0.48407
 
 Excited State  10:      Singlet-A'    10.3564 eV  119.72 nm  f=0.0672  <S**2>=0.000
      12 -> 15         0.12289
      13 -> 16         0.69016
 
 Excited State  11:      Triplet-A'    10.3790 eV  119.46 nm  f=0.0000  <S**2>=2.000
       9 -> 14        -0.17414
      12 -> 14        -0.13254
      12 -> 15         0.62121
      13 -> 16         0.17346
 
 Excited State  12:      Singlet-A"    10.4762 eV  118.35 nm  f=0.0615  <S**2>=0.000
      13 -> 17         0.68210
      13 -> 18        -0.13378
 
 Excited State  13:      Triplet-A"    10.6805 eV  116.08 nm  f=0.0000  <S**2>=2.000
      11 -> 14         0.63062
      11 -> 15        -0.14625
      13 -> 17         0.15246
      13 -> 18        -0.14726
      13 -> 20         0.13559
 
 Excited State  14:      Singlet-A"    10.6841 eV  116.05 nm  f=0.0012  <S**2>=0.000
      11 -> 14         0.43423
      13 -> 17         0.15857
      13 -> 18         0.45507
      13 -> 20        -0.26852
 
 Excited State  15:      Triplet-A'    10.7621 eV  115.20 nm  f=0.0000  <S**2>=2.000
       9 -> 14        -0.17265
      10 -> 14         0.62432
      10 -> 15        -0.11302
      10 -> 18         0.16912
 
 Excited State  16:      Singlet-A"    10.8537 eV  114.23 nm  f=0.0029  <S**2>=0.000
      11 -> 14         0.54169
      13 -> 18        -0.42862
      13 -> 20         0.12073
 
 Excited State  17:      Triplet-A"    10.9218 eV  113.52 nm  f=0.0000  <S**2>=2.000
      11 -> 15         0.23652
      11 -> 18         0.10533
      13 -> 18         0.52650
      13 -> 20         0.34691
 
 Excited State  18:      Singlet-A'    11.0087 eV  112.62 nm  f=0.0175  <S**2>=0.000
      12 -> 15         0.64002
      13 -> 16        -0.12663
      13 -> 19         0.24477
 
 Excited State  19:      Singlet-A"    11.1673 eV  111.02 nm  f=0.0024  <S**2>=0.000
      13 -> 18         0.29816
      13 -> 20         0.62817
 
 Excited State  20:      Singlet-A'    11.3776 eV  108.97 nm  f=0.0698  <S**2>=0.000
       9 -> 14        -0.39147
      10 -> 14         0.56965
 SavETr:  write IOETrn=   770 NScale= 10 NData=  16 NLR=1 NState=   20 LETran=     370.
 Leave Link  914 at Sun Apr 14 13:01:45 2024, MaxMem=  1073741824 cpu:              60.9 elap:              30.4
 (Enter /usr/local/g16/l601.exe)
 Copying SCF densities to generalized density rwf, IOpCl= 0 IROHF=0.

 **********************************************************************

            Population analysis using the SCF Density.

 **********************************************************************

 Orbital symmetries:
       Occupied  (A') (A') (A') (A') (A') (A') (A') (A") (A') (A')
                 (A") (A') (A")
       Virtual   (A') (A') (A") (A') (A') (A") (A') (A') (A') (A")
                 (A') (A') (A') (A") (A') (A") (A') (A') (A") (A')
                 (A') (A") (A') (A') (A') (A") (A') (A') (A") (A')
                 (A") (A') (A') (A") (A') (A") (A') (A") (A') (A')
                 (A') (A') (A') (A')
 The electronic state is 1-A'.
 Alpha  occ. eigenvalues --  -19.13709 -10.22826 -10.17170  -1.00887  -0.74322
 Alpha  occ. eigenvalues --   -0.60562  -0.51041  -0.45899  -0.39458  -0.37884
 Alpha  occ. eigenvalues --   -0.36059  -0.32521  -0.26153
 Alpha virt. eigenvalues --    0.07659   0.11920   0.15743   0.16220   0.17560
 Alpha virt. eigenvalues --    0.19930   0.21414   0.24007   0.52869   0.55882
 Alpha virt. eigenvalues --    0.56221   0.58415   0.66999   0.68388   0.80847
 Alpha virt. eigenvalues --    0.85089   0.87436   0.89566   0.90855   0.93579
 Alpha virt. eigenvalues --    0.99229   1.02276   1.02602   1.16348   1.37581
 Alpha virt. eigenvalues --    1.44688   1.48448   1.65520   1.74610   1.78939
 Alpha virt. eigenvalues --    1.92578   1.94699   2.03741   2.16775   2.22141
 Alpha virt. eigenvalues --    2.32837   2.38195   2.40821   2.49395   2.61492
 Alpha virt. eigenvalues --    2.83967   3.71824   4.17283   4.39861
          Condensed to atoms (all electrons):
               1          2          3          4          5          6
     1  C    4.764492   0.385254  -0.031286  -0.031286  -0.027848   0.256402
     2  C    0.385254   5.081914   0.374222   0.374222   0.360321  -0.056853
     3  H   -0.031286   0.374222   0.557636  -0.031662  -0.027876   0.002601
     4  H   -0.031286   0.374222  -0.031662   0.557636  -0.027876   0.002601
     5  H   -0.027848   0.360321  -0.027876  -0.027876   0.580807   0.003052
     6  O    0.256402  -0.056853   0.002601   0.002601   0.003052   8.253986
     7  H   -0.022465   0.007162  -0.000098  -0.000098  -0.000320   0.231086
     8  H    0.366232  -0.042292  -0.007436   0.006080   0.000034  -0.039898
     9  H    0.366232  -0.042292   0.006080  -0.007436   0.000034  -0.039898
               7          8          9
     1  C   -0.022465   0.366232   0.366232
     2  C    0.007162  -0.042292  -0.042292
     3  H   -0.000098  -0.007436   0.006080
     4  H   -0.000098   0.006080  -0.007436
     5  H   -0.000320   0.000034   0.000034
     6  O    0.231086  -0.039898  -0.039898
     7  H    0.403344  -0.004031  -0.004031
     8  H   -0.004031   0.664349  -0.060886
     9  H   -0.004031  -0.060886   0.664349
 Mulliken charges:
               1
     1  C   -0.025725
     2  C   -0.441656
     3  H    0.157820
     4  H    0.157820
     5  H    0.139672
     6  O   -0.613080
     7  H    0.389452
     8  H    0.117849
     9  H    0.117849
 Sum of Mulliken charges =  -0.00000
 Mulliken charges with hydrogens summed into heavy atoms:
               1
     1  C    0.209973
     2  C    0.013655
     6  O   -0.223628
 Electronic spatial extent (au):  <R**2>=            193.5913
 Charge=             -0.0000 electrons
 Dipole moment (field-independent basis, Debye):
    X=             -0.0187    Y=              1.5613    Z=             -0.0000  Tot=              1.5614
 Quadrupole moment (field-independent basis, Debye-Ang):
   XX=            -17.3405   YY=            -19.7164   ZZ=            -19.9415
   XY=             -2.4092   XZ=             -0.0000   YZ=              0.0000
 Traceless Quadrupole moment (field-independent basis, Debye-Ang):
   XX=              1.6589   YY=             -0.7169   ZZ=             -0.9420
   XY=             -2.4092   XZ=             -0.0000   YZ=              0.0000
 Octapole moment (field-independent basis, Debye-Ang**2):
  XXX=            -14.2049  YYY=             -0.3099  ZZZ=             -0.0000  XYY=             -2.0598
  XXY=              4.4054  XXZ=             -0.0000  XZZ=             -1.4418  YZZ=             -0.2947
  YYZ=             -0.0000  XYZ=              0.0000
 Hexadecapole moment (field-independent basis, Debye-Ang**3):
 XXXX=           -129.6203 YYYY=            -59.9118 ZZZZ=            -32.3951 XXXY=              3.9205
 XXXZ=              0.0000 YYYX=              8.4151 YYYZ=              0.0000 ZZZX=             -0.0000
 ZZZY=              0.0000 XXYY=            -34.5834 XXZZ=            -31.8706 YYZZ=            -14.1413
 XXYZ=              0.0000 YYXZ=             -0.0000 ZZXY=              2.1513
 N-N= 8.161166945944D+01 E-N=-5.251322756947D+02  KE= 1.536195823125D+02
 Symmetry A'   KE= 1.450090883352D+02
 Symmetry A"   KE= 8.610493977278D+00
 Leave Link  601 at Sun Apr 14 13:01:45 2024, MaxMem=  1073741824 cpu:               0.0 elap:               0.0
 (Enter /usr/local/g16/l9999.exe)
 Electronic transition elements 
                 1             2             3             4             5 
      1  -0.154774D+03 -0.154752D+03 -0.154712D+03 -0.154708D+03 -0.154696D+03
      2   0.000000D+00  0.492502D-01  0.000000D+00  0.000000D+00 -0.218177D+00
      3   0.000000D+00 -0.283733D-01  0.000000D+00  0.000000D+00  0.125693D+00
      4   0.000000D+00  0.000000D+00  0.000000D+00  0.000000D+00  0.000000D+00
      5   0.000000D+00  0.393883D-01  0.000000D+00  0.000000D+00  0.941231D-01
      6   0.000000D+00 -0.226918D-01  0.000000D+00  0.000000D+00 -0.542247D-01
      7   0.000000D+00  0.000000D+00  0.000000D+00  0.000000D+00  0.000000D+00
      8   0.000000D+00 -0.213646D+00  0.000000D+00  0.000000D+00 -0.274955D+00
      9   0.000000D+00 -0.370845D+00  0.000000D+00  0.000000D+00 -0.477266D+00
     10   0.000000D+00 -0.528151D+00  0.000000D+00  0.000000D+00  0.364457D+00
     11   0.000000D+00  0.282053D+00  0.000000D+00  0.000000D+00 -0.322119D+00
     12   0.000000D+00 -0.282053D+00  0.000000D+00  0.000000D+00  0.322119D+00
     13   0.000000D+00  0.000000D+00  0.000000D+00  0.000000D+00  0.000000D+00
     14   0.000000D+00  0.163547D+00  0.000000D+00  0.000000D+00 -0.186779D+00
     15   0.000000D+00 -0.159558D+00  0.000000D+00  0.000000D+00 -0.324038D+00
     16   0.000000D+00  0.919223D-01  0.000000D+00  0.000000D+00  0.186680D+00
                 6             7             8             9            10 
      1  -0.154680D+03 -0.154680D+03 -0.154665D+03 -0.154656D+03 -0.154653D+03
      2   0.000000D+00 -0.420756D-01  0.000000D+00  0.000000D+00 -0.205024D+00
      3   0.000000D+00 -0.730347D-01  0.000000D+00  0.000000D+00 -0.355880D+00
      4   0.000000D+00  0.183419D+00  0.000000D+00  0.000000D+00 -0.310220D+00
      5   0.000000D+00  0.301900D-02  0.000000D+00  0.000000D+00  0.849536D-01
      6   0.000000D+00  0.524037D-02  0.000000D+00  0.000000D+00  0.147462D+00
      7   0.000000D+00 -0.885375D-01  0.000000D+00  0.000000D+00  0.801251D-01
      8   0.000000D+00 -0.857132D+00  0.000000D+00  0.000000D+00 -0.212399D+00
      9   0.000000D+00  0.493798D+00  0.000000D+00  0.000000D+00  0.122364D+00
     10   0.000000D+00  0.000000D+00  0.000000D+00  0.000000D+00  0.000000D+00
     11   0.000000D+00 -0.211110D+00  0.000000D+00  0.000000D+00 -0.206261D+00
     12   0.000000D+00 -0.297937D+00  0.000000D+00  0.000000D+00 -0.218131D+00
     13   0.000000D+00  0.743579D+00  0.000000D+00  0.000000D+00  0.243896D+00
     14   0.000000D+00 -0.748701D-01  0.000000D+00  0.000000D+00 -0.102362D-01
     15   0.000000D+00 -0.136918D+00  0.000000D+00  0.000000D+00 -0.177253D+00
     16   0.000000D+00 -0.237661D+00  0.000000D+00  0.000000D+00 -0.307676D+00
                11            12            13            14            15 
      1  -0.154652D+03 -0.154649D+03 -0.154641D+03 -0.154641D+03 -0.154638D+03
      2   0.000000D+00 -0.424065D+00  0.000000D+00  0.591113D-01  0.000000D+00
      3   0.000000D+00  0.244306D+00  0.000000D+00 -0.340543D-01  0.000000D+00
      4   0.000000D+00  0.000000D+00  0.000000D+00  0.000000D+00  0.000000D+00
      5   0.000000D+00  0.166722D+00  0.000000D+00 -0.322065D-01  0.000000D+00
      6   0.000000D+00 -0.960490D-01  0.000000D+00  0.185543D-01  0.000000D+00
      7   0.000000D+00  0.000000D+00  0.000000D+00  0.000000D+00  0.000000D+00
      8   0.000000D+00 -0.648205D-01  0.000000D+00  0.158410D+00  0.000000D+00
      9   0.000000D+00 -0.112515D+00  0.000000D+00  0.274968D+00  0.000000D+00
     10   0.000000D+00  0.346312D+00  0.000000D+00 -0.750244D-02  0.000000D+00
     11   0.000000D+00 -0.250465D+00  0.000000D+00 -0.806705D-01  0.000000D+00
     12   0.000000D+00  0.250465D+00  0.000000D+00  0.806705D-01  0.000000D+00
     13   0.000000D+00  0.000000D+00  0.000000D+00  0.000000D+00  0.000000D+00
     14   0.000000D+00 -0.145231D+00  0.000000D+00 -0.467764D-01  0.000000D+00
     15   0.000000D+00 -0.229487D+00  0.000000D+00  0.230307D+00  0.000000D+00
     16   0.000000D+00  0.132209D+00  0.000000D+00 -0.132681D+00  0.000000D+00
                16            17            18            19            20 
      1  -0.154635D+03 -0.154632D+03 -0.154629D+03 -0.154623D+03 -0.154616D+03
      2   0.908436D-01  0.000000D+00  0.127139D+00  0.807660D-01  0.220482D+00
      3  -0.523354D-01  0.000000D+00  0.220688D+00 -0.465297D-01  0.382712D+00
      4   0.000000D+00  0.000000D+00  0.132654D-01  0.000000D+00 -0.234940D+00
      5  -0.462853D-01  0.000000D+00 -0.539142D-01 -0.410720D-01 -0.105704D+00
      6   0.266652D-01  0.000000D+00 -0.935840D-01  0.236618D-01 -0.183480D+00
      7   0.000000D+00  0.000000D+00 -0.122166D-01  0.000000D+00  0.929571D-01
      8   0.221827D+00  0.000000D+00 -0.418534D+00 -0.158292D-01  0.420284D+00
      9   0.385047D+00  0.000000D+00  0.241119D+00 -0.274763D-01 -0.242128D+00
     10  -0.230478D+00  0.000000D+00  0.000000D+00  0.651357D+00  0.000000D+00
     11   0.985212D-01  0.000000D+00  0.201124D+00  0.439746D-03 -0.373889D-02
     12  -0.985212D-01  0.000000D+00  0.329648D-01 -0.439746D-03  0.318286D-01
     13   0.000000D+00  0.000000D+00  0.304804D+00  0.000000D+00 -0.168643D+00
     14   0.571271D-01  0.000000D+00 -0.145003D+00  0.254985D-03  0.306698D-01
     15   0.293164D+00  0.000000D+00  0.142503D+00 -0.669475D-01  0.429333D-01
     16  -0.168893D+00  0.000000D+00  0.247357D+00  0.385688D-01  0.745234D-01
 Unable to Open any file for archive entry.
 1\1\GINC-WEBMO\SP\RB3LYP TD-FC\Gen\C2H6O1\CONNOR\14-Apr-2024\0\\#p td=
 (nstates=10,50-50) B3LYP/chkbasis geom=allcheck\\opt\\0,1\C,0,-0.00357
 1697,-0.0061997377,0.0006938513\C,0,-0.0000992744,-0.0001723201,1.5204
 039111\H,0,1.0271704122,0.0064062113,1.8994115423\H,0,-0.5097054905,0.
 8918073829,1.8994115423\H,0,-0.5111372513,-0.8872300485,1.9112706675\O
 ,0,0.6723183395,1.1670075532,-0.4418539683\H,0,0.6707452895,1.16427705
 92,-1.4109316831\H,0,0.4967521397,-0.9155257345,-0.3718284244\H,0,-1.0
 411912619,-0.029509572,-0.3718284244\\Version=ES64L-G16RevC.01\State=1
 -A'\HF=-155.0337992\RMSD=2.091e-09\PG=CS [SG(C2H2O1),X(H4)]\\@
 The archive entry for this job was punched.


 CHARLIE BROWN -- WHICH DO YOU THINK LASTS LONGER IN LIFE, THE GOOD THINGS 
                  OR THE BAD THINGS?
 LINUS --         GOOD THINGS LAST EIGHT SECONDS ..
                  BAD THINGS LAST THREE WEEKS
 CHARLIE BROWN -- WHAT ABOUT IN BETWEEN?
 SNOOPY --        IN BETWEEN YOU SHOULD TAKE A NAP ...
 Job cpu time:       0 days  0 hours  1 minutes  5.8 seconds.
 Elapsed time:       0 days  0 hours  0 minutes 33.0 seconds.
 File lengths (MBytes):  RWF=    101 Int=      0 D2E=      0 Chk=      4 Scr=      1
 Normal termination of Gaussian 16 at Sun Apr 14 13:01:45 2024.
