 Entering Gaussian System, Link 0=g16
 Initial command:
 /usr/local/g16/l1.exe "/tmp/Gau-3751.inp" -scrdir="/tmp/"
 Entering Link 1 = /usr/local/g16/l1.exe PID=      3752.
  
 Copyright (c) 1988-2019, Gaussian, Inc.  All Rights Reserved.
  
 This is part of the Gaussian(R) 16 program.  It is based on
 the Gaussian(R) 09 system (copyright 2009, Gaussian, Inc.),
 the Gaussian(R) 03 system (copyright 2003, Gaussian, Inc.),
 the Gaussian(R) 98 system (copyright 1998, Gaussian, Inc.),
 the Gaussian(R) 94 system (copyright 1995, Gaussian, Inc.),
 the Gaussian 92(TM) system (copyright 1992, Gaussian, Inc.),
 the Gaussian 90(TM) system (copyright 1990, Gaussian, Inc.),
 the Gaussian 88(TM) system (copyright 1988, Gaussian, Inc.),
 the Gaussian 86(TM) system (copyright 1986, Carnegie Mellon
 University), and the Gaussian 82(TM) system (copyright 1983,
 Carnegie Mellon University). Gaussian is a federally registered
 trademark of Gaussian, Inc.
  
 This software contains proprietary and confidential information,
 including trade secrets, belonging to Gaussian, Inc.
  
 This software is provided under written license and may be
 used, copied, transmitted, or stored only in accord with that
 written license.
  
 The following legend is applicable only to US Government
 contracts under FAR:
  
                    RESTRICTED RIGHTS LEGEND
  
 Use, reproduction and disclosure by the US Government is
 subject to restrictions as set forth in subparagraphs (a)
 and (c) of the Commercial Computer Software - Restricted
 Rights clause in FAR 52.227-19.
  
 Gaussian, Inc.
 340 Quinnipiac St., Bldg. 40, Wallingford CT 06492
  
  
 ---------------------------------------------------------------
 Warning -- This program may not be used in any manner that
 competes with the business of Gaussian, Inc. or will provide
 assistance to any competitor of Gaussian, Inc.  The licensee
 of this program is prohibited from giving any competitor of
 Gaussian, Inc. access to this program.  By using this program,
 the user acknowledges that Gaussian, Inc. is engaged in the
 business of creating and licensing software in the field of
 computational chemistry and represents and warrants to the
 licensee that it is not a competitor of Gaussian, Inc. and that
 it will not use this program in any manner prohibited above.
 ---------------------------------------------------------------
  

 Cite this work as:
 Gaussian 16, Revision C.01,
 M. J. Frisch, G. W. Trucks, H. B. Schlegel, G. E. Scuseria, 
 M. A. Robb, J. R. Cheeseman, G. Scalmani, V. Barone, 
 G. A. Petersson, H. Nakatsuji, X. Li, M. Caricato, A. V. Marenich, 
 J. Bloino, B. G. Janesko, R. Gomperts, B. Mennucci, H. P. Hratchian, 
 J. V. Ortiz, A. F. Izmaylov, J. L. Sonnenberg, D. Williams-Young, 
 F. Ding, F. Lipparini, F. Egidi, J. Goings, B. Peng, A. Petrone, 
 T. Henderson, D. Ranasinghe, V. G. Zakrzewski, J. Gao, N. Rega, 
 G. Zheng, W. Liang, M. Hada, M. Ehara, K. Toyota, R. Fukuda, 
 J. Hasegawa, M. Ishida, T. Nakajima, Y. Honda, O. Kitao, H. Nakai, 
 T. Vreven, K. Throssell, J. A. Montgomery, Jr., J. E. Peralta, 
 F. Ogliaro, M. J. Bearpark, J. J. Heyd, E. N. Brothers, K. N. Kudin, 
 V. N. Staroverov, T. A. Keith, R. Kobayashi, J. Normand, 
 K. Raghavachari, A. P. Rendell, J. C. Burant, S. S. Iyengar, 
 J. Tomasi, M. Cossi, J. M. Millam, M. Klene, C. Adamo, R. Cammi, 
 J. W. Ochterski, R. L. Martin, K. Morokuma, O. Farkas, 
 J. B. Foresman, and D. J. Fox, Gaussian, Inc., Wallingford CT, 2019.
 
 ******************************************
 Gaussian 16:  ES64L-G16RevC.01  3-Jul-2019
                14-Apr-2024 
 ******************************************
 %mem=8GB
 %nprocshared=2
 Will use up to    2 processors via shared memory.
 %chk=pyridine-opt.chk
 ---------------------------------------
 #p opt B3LYP/6-31G(d) geom=connectivity
 ---------------------------------------
 1/18=20,19=15,26=3,38=1,57=2/1,3;
 2/9=110,12=2,17=6,18=5,40=1/2;
 3/5=1,6=6,7=1,11=2,25=1,30=1,71=1,74=-5/1,2,3;
 4//1;
 5/5=2,38=5/2;
 6/7=2,8=2,9=2,10=2,28=1/1;
 7//1,2,3,16;
 1/18=20,19=15,26=3/3(2);
 2/9=110/2;
 99//99;
 2/9=110/2;
 3/5=1,6=6,7=1,11=2,25=1,30=1,71=1,74=-5/1,2,3;
 4/5=5,16=3,69=1/1;
 5/5=2,38=5/2;
 7//1,2,3,16;
 1/18=20,19=15,26=3/3(-5);
 2/9=110/2;
 6/7=2,8=2,9=2,10=2,19=2,28=1/1;
 99/9=1/99;
 Leave Link    1 at Sun Apr 14 13:03:32 2024, MaxMem=  1073741824 cpu:               0.0 elap:               0.0
 (Enter /usr/local/g16/l101.exe)
 ---
 opt
 ---
 Symbolic Z-matrix:
 Charge =  0 Multiplicity = 1
 C
 N                    1    B1
 C                    2    B2       1    A1
 C                    3    B3       2    A2       1    D1       0
 C                    4    B4       3    A3       2    D2       0
 C                    1    B5       2    A4       3    D3       0
 H                    6    B6       1    A5       2    D4       0
 H                    5    B7       6    A6       1    D5       0
 H                    4    B8       5    A7       6    D6       0
 H                    3    B9       4    A8       5    D7       0
 H                    1    B10      2    A9       3    D8       0
       Variables:
  B1                    1.26662                  
  B2                    1.26662                  
  B3                    1.34301                  
  B4                    1.34175                  
  B5                    1.34301                  
  B6                    1.10367                  
  B7                    1.10363                  
  B8                    1.10367                  
  B9                    1.10418                  
  B10                   1.10418                  
  A1                  117.76922                  
  A2                  123.91307                  
  A3                  118.2161                   
  A4                  123.91307                  
  A5                  120.93436                  
  A6                  121.01378                  
  A7                  120.84954                  
  A8                  119.89507                  
  A9                  116.19186                  
  D1                   0.                        
  D2                    0.                       
  D3                    0.                       
  D4                  180.                       
  D5                  180.                       
  D6                 -180.                       
  D7                 -180.                       
  D8                 -180.                       
 
 ITRead=  0  0  0  0  0  0  0  0  0  0  0
 MicOpt= -1 -1 -1 -1 -1 -1 -1 -1 -1 -1 -1
 NAtoms=     11 NQM=       11 NQMF=       0 NMMI=      0 NMMIF=      0
                NMic=       0 NMicF=      0.
                    Isotopes and Nuclear Properties:
 (Nuclear quadrupole moments (NQMom) in fm**2, nuclear magnetic moments (NMagM)
  in nuclear magnetons)

  Atom         1           2           3           4           5           6           7           8           9          10
 IAtWgt=          12          14          12          12          12          12           1           1           1           1
 AtmWgt=  12.0000000  14.0030740  12.0000000  12.0000000  12.0000000  12.0000000   1.0078250   1.0078250   1.0078250   1.0078250
 NucSpn=           0           2           0           0           0           0           1           1           1           1
 AtZEff=  -0.0000000  -0.0000000  -0.0000000  -0.0000000  -0.0000000  -0.0000000  -0.0000000  -0.0000000  -0.0000000  -0.0000000
 NQMom=    0.0000000   2.0440000   0.0000000   0.0000000   0.0000000   0.0000000   0.0000000   0.0000000   0.0000000   0.0000000
 NMagM=    0.0000000   0.4037610   0.0000000   0.0000000   0.0000000   0.0000000   2.7928460   2.7928460   2.7928460   2.7928460
 AtZNuc=   6.0000000   7.0000000   6.0000000   6.0000000   6.0000000   6.0000000   1.0000000   1.0000000   1.0000000   1.0000000

  Atom        11
 IAtWgt=           1
 AtmWgt=   1.0078250
 NucSpn=           1
 AtZEff=  -0.0000000
 NQMom=    0.0000000
 NMagM=    2.7928460
 AtZNuc=   1.0000000
 Leave Link  101 at Sun Apr 14 13:03:32 2024, MaxMem=  1073741824 cpu:               0.2 elap:               0.1
 (Enter /usr/local/g16/l103.exe)

 GradGradGradGradGradGradGradGradGradGradGradGradGradGradGradGradGradGrad
 Berny optimization.
 Initialization pass.
                           ----------------------------
                           !    Initial Parameters    !
                           ! (Angstroms and Degrees)  !
 --------------------------                            --------------------------
 ! Name  Definition              Value          Derivative Info.                !
 --------------------------------------------------------------------------------
 ! R1    R(1,2)                  1.2666         estimate D2E/DX2                !
 ! R2    R(1,6)                  1.343          estimate D2E/DX2                !
 ! R3    R(1,11)                 1.1042         estimate D2E/DX2                !
 ! R4    R(2,3)                  1.2666         estimate D2E/DX2                !
 ! R5    R(3,4)                  1.343          estimate D2E/DX2                !
 ! R6    R(3,10)                 1.1042         estimate D2E/DX2                !
 ! R7    R(4,5)                  1.3418         estimate D2E/DX2                !
 ! R8    R(4,9)                  1.1037         estimate D2E/DX2                !
 ! R9    R(5,6)                  1.3418         estimate D2E/DX2                !
 ! R10   R(5,8)                  1.1036         estimate D2E/DX2                !
 ! R11   R(6,7)                  1.1037         estimate D2E/DX2                !
 ! A1    A(2,1,6)              123.9131         estimate D2E/DX2                !
 ! A2    A(2,1,11)             116.1919         estimate D2E/DX2                !
 ! A3    A(6,1,11)             119.8951         estimate D2E/DX2                !
 ! A4    A(1,2,3)              117.7692         estimate D2E/DX2                !
 ! A5    A(2,3,4)              123.9131         estimate D2E/DX2                !
 ! A6    A(2,3,10)             116.1919         estimate D2E/DX2                !
 ! A7    A(4,3,10)             119.8951         estimate D2E/DX2                !
 ! A8    A(3,4,5)              118.2161         estimate D2E/DX2                !
 ! A9    A(3,4,9)              120.9344         estimate D2E/DX2                !
 ! A10   A(5,4,9)              120.8495         estimate D2E/DX2                !
 ! A11   A(4,5,6)              117.9724         estimate D2E/DX2                !
 ! A12   A(4,5,8)              121.0138         estimate D2E/DX2                !
 ! A13   A(6,5,8)              121.0138         estimate D2E/DX2                !
 ! A14   A(1,6,5)              118.2161         estimate D2E/DX2                !
 ! A15   A(1,6,7)              120.9344         estimate D2E/DX2                !
 ! A16   A(5,6,7)              120.8495         estimate D2E/DX2                !
 ! D1    D(6,1,2,3)              0.0            estimate D2E/DX2                !
 ! D2    D(11,1,2,3)           180.0            estimate D2E/DX2                !
 ! D3    D(2,1,6,5)              0.0            estimate D2E/DX2                !
 ! D4    D(2,1,6,7)            180.0            estimate D2E/DX2                !
 ! D5    D(11,1,6,5)          -180.0            estimate D2E/DX2                !
 ! D6    D(11,1,6,7)             0.0            estimate D2E/DX2                !
 ! D7    D(1,2,3,4)              0.0            estimate D2E/DX2                !
 ! D8    D(1,2,3,10)           180.0            estimate D2E/DX2                !
 ! D9    D(2,3,4,5)              0.0            estimate D2E/DX2                !
 ! D10   D(2,3,4,9)           -180.0            estimate D2E/DX2                !
 ! D11   D(10,3,4,5)          -180.0            estimate D2E/DX2                !
 ! D12   D(10,3,4,9)             0.0            estimate D2E/DX2                !
 ! D13   D(3,4,5,6)              0.0            estimate D2E/DX2                !
 ! D14   D(3,4,5,8)            180.0            estimate D2E/DX2                !
 ! D15   D(9,4,5,6)            180.0            estimate D2E/DX2                !
 ! D16   D(9,4,5,8)              0.0            estimate D2E/DX2                !
 ! D17   D(4,5,6,1)              0.0            estimate D2E/DX2                !
 ! D18   D(4,5,6,7)            180.0            estimate D2E/DX2                !
 ! D19   D(8,5,6,1)            180.0            estimate D2E/DX2                !
 ! D20   D(8,5,6,7)              0.0            estimate D2E/DX2                !
 --------------------------------------------------------------------------------
 Trust Radius=3.00D-01 FncErr=1.00D-07 GrdErr=1.00D-06 EigMax=2.50D+02 EigMin=1.00D-04
 Number of steps in this run=     57 maximum allowed number of steps=    100.
 GradGradGradGradGradGradGradGradGradGradGradGradGradGradGradGradGradGrad

 Leave Link  103 at Sun Apr 14 13:03:32 2024, MaxMem=  1073741824 cpu:               0.0 elap:               0.0
 (Enter /usr/local/g16/l202.exe)
                          Input orientation:                          
 ---------------------------------------------------------------------
 Center     Atomic      Atomic             Coordinates (Angstroms)
 Number     Number       Type             X           Y           Z
 ---------------------------------------------------------------------
      1          6           0        0.000000    0.000000    0.000000
      2          7           0        0.000000    0.000000    1.266621
      3          6           0        1.120746    0.000000    1.856754
      4          6           0        2.303039   -0.000000    1.219684
      5          6           0        2.300659   -0.000000   -0.122068
      6          6           0        1.114544    0.000000   -0.749311
      7          1           0        1.057192    0.000000   -1.851492
      8          1           0        3.245505   -0.000000   -0.692382
      9          1           0        3.251562   -0.000000    1.783949
     10          1           0        1.090352    0.000000    2.960518
     11          1           0       -0.990806    0.000000   -0.487362
 ---------------------------------------------------------------------
                    Distance matrix (angstroms):
                    1          2          3          4          5
     1  C    0.000000
     2  N    1.266621   0.000000
     3  C    2.168781   1.266621   0.000000
     4  C    2.606073   2.303517   1.343010   0.000000
     5  C    2.303895   2.687283   2.303895   1.341754   0.000000
     6  C    1.343010   2.303517   2.606073   2.299883   1.341754
     7  H    2.132059   3.292459   3.708791   3.314251   2.130051
     8  H    3.318538   3.790910   3.318538   2.131722   1.103627
     9  H    3.708791   3.292459   2.132059   1.103672   2.130051
    10  H    3.154922   2.014486   1.104182   2.121583   3.311674
    11  H    1.104182   2.014486   3.154922   3.709908   3.311674
                    6          7          8          9         10
     6  C    0.000000
     7  H    1.103672   0.000000
     8  H    2.131722   2.476339   0.000000
     9  H    3.314251   4.246375   2.476339   0.000000
    10  H    3.709908   4.812125   4.241269   2.460720   0.000000
    11  H    2.121583   2.460720   4.241269   4.812125   4.027294
                   11
    11  H    0.000000
 Stoichiometry    C5H5N
 Framework group  C2V[C2(HCN),SGV(C4H4)]
 Deg. of freedom    10
 Full point group                 C2V     NOp   4
 Largest Abelian subgroup         C2V     NOp   4
 Largest concise Abelian subgroup C2      NOp   2
                         Standard orientation:                         
 ---------------------------------------------------------------------
 Center     Atomic      Atomic             Coordinates (Angstroms)
 Number     Number       Type             X           Y           Z
 ---------------------------------------------------------------------
      1          6           0        0.000000    1.084390    0.699496
      2          7           0        0.000000   -0.000000    1.354040
      3          6           0       -0.000000   -1.084390    0.699496
      4          6           0       -0.000000   -1.149942   -0.641913
      5          6           0       -0.000000    0.000000   -1.333244
      6          6           0        0.000000    1.149942   -0.641913
      7          1           0        0.000000    2.123187   -1.162379
      8          1           0       -0.000000    0.000000   -2.436870
      9          1           0       -0.000000   -2.123187   -1.162379
     10          1           0       -0.000000   -2.013647    1.295903
     11          1           0        0.000000    2.013647    1.295903
 ---------------------------------------------------------------------
 Rotational constants (GHZ):           6.5448484           6.2647163           3.2008596
 Leave Link  202 at Sun Apr 14 13:03:32 2024, MaxMem=  1073741824 cpu:               0.0 elap:               0.0
 (Enter /usr/local/g16/l301.exe)
 Standard basis: 6-31G(d) (6D, 7F)
 Ernie: Thresh=  0.10000D-02 Tol=  0.10000D-05 Strict=F.
 There are    44 symmetry adapted cartesian basis functions of A1  symmetry.
 There are    10 symmetry adapted cartesian basis functions of A2  symmetry.
 There are    14 symmetry adapted cartesian basis functions of B1  symmetry.
 There are    32 symmetry adapted cartesian basis functions of B2  symmetry.
 There are    44 symmetry adapted basis functions of A1  symmetry.
 There are    10 symmetry adapted basis functions of A2  symmetry.
 There are    14 symmetry adapted basis functions of B1  symmetry.
 There are    32 symmetry adapted basis functions of B2  symmetry.
   100 basis functions,   188 primitive gaussians,   100 cartesian basis functions
    21 alpha electrons       21 beta electrons
       nuclear repulsion energy       213.6368172562 Hartrees.
 IExCor=  402 DFT=T Ex+Corr=B3LYP ExCW=0 ScaHFX=  0.200000
 ScaDFX=  0.800000  0.720000  1.000000  0.810000 ScalE2=  1.000000  1.000000
 IRadAn=      5 IRanWt=     -1 IRanGd=            0 ICorTp=0 IEmpDi=  4
 NAtoms=   11 NActive=   11 NUniq=    7 SFac= 2.47D+00 NAtFMM=   60 NAOKFM=F Big=F
 Integral buffers will be    131072 words long.
 Raffenetti 2 integral format.
 Two-electron integral symmetry is turned on.
 Leave Link  301 at Sun Apr 14 13:03:32 2024, MaxMem=  1073741824 cpu:               0.0 elap:               0.0
 (Enter /usr/local/g16/l302.exe)
 NPDir=0 NMtPBC=     1 NCelOv=     1 NCel=       1 NClECP=     1 NCelD=      1
         NCelK=      1 NCelE2=     1 NClLst=     1 CellRange=     0.0.
 One-electron integrals computed using PRISM.
 One-electron integral symmetry used in STVInt
 NBasis=   100 RedAO= T EigKep=  6.50D-04  NBF=    44    10    14    32
 NBsUse=   100 1.00D-06 EigRej= -1.00D+00 NBFU=    44    10    14    32
 Precomputing XC quadrature grid using
 IXCGrd= 4 IRadAn=           5 IRanWt=          -1 IRanGd=           0 AccXCQ= 0.00D+00.
 Generated NRdTot=       0 NPtTot=           0 NUsed=           0 NTot=          32
 NSgBfM=   100   100   100   100   100 MxSgAt=    11 MxSgA2=    11.
 Leave Link  302 at Sun Apr 14 13:03:32 2024, MaxMem=  1073741824 cpu:               0.2 elap:               0.1
 (Enter /usr/local/g16/l303.exe)
 DipDrv:  MaxL=1.
 Leave Link  303 at Sun Apr 14 13:03:33 2024, MaxMem=  1073741824 cpu:               0.0 elap:               0.0
 (Enter /usr/local/g16/l401.exe)
 ExpMin= 1.61D-01 ExpMax= 4.17D+03 ExpMxC= 6.27D+02 IAcc=3 IRadAn=         5 AccDes= 0.00D+00
 Harris functional with IExCor=  402 and IRadAn=       5 diagonalized for initial guess.
 HarFok:  IExCor=  402 AccDes= 0.00D+00 IRadAn=         5 IDoV= 1 UseB2=F ITyADJ=14
 ICtDFT=  3500011 ScaDFX=  1.000000  1.000000  1.000000  1.000000
 FoFCou: FMM=F IPFlag=           0 FMFlag=      100000 FMFlg1=           0
         NFxFlg=           0 DoJE=T BraDBF=F KetDBF=T FulRan=T
         wScrn=  0.000000 ICntrl=       500 IOpCl=  0 I1Cent=   200000004 NGrid=           0
         NMat0=    1 NMatS0=      1 NMatT0=    0 NMatD0=    1 NMtDS0=    0 NMtDT0=    0
 Petite list used in FoFCou.
 Harris En= -248.279671731279    
 JPrj=0 DoOrth=F DoCkMO=F.
 Initial guess orbital symmetries:
       Occupied  (A1) (A1) (B2) (A1) (B2) (A1) (A1) (A1) (B2) (B2)
                 (A1) (A1) (B2) (A1) (B2) (B1) (A1) (B2) (B1) (A2)
                 (A1)
       Virtual   (B1) (A2) (A1) (B1) (B2) (A1) (B2) (A1) (A1) (B2)
                 (B2) (A1) (A1) (B2) (B1) (B2) (A1) (A2) (A1) (B1)
                 (B2) (A1) (A1) (A2) (B2) (B1) (B2) (A1) (A1) (B2)
                 (B1) (A1) (A1) (B2) (A1) (B2) (B2) (A1) (A1) (A2)
                 (B2) (B1) (A1) (A2) (B1) (B2) (B1) (A2) (A1) (A1)
                 (B2) (A1) (A1) (B2) (A1) (A2) (B2) (B1) (B2) (A1)
                 (B1) (A2) (B1) (A1) (B2) (A1) (A1) (B2) (A2) (B2)
                 (A1) (B2) (A1) (A1) (B2) (A1) (A1) (B2) (A1)
 The electronic state of the initial guess is 1-A1.
 Leave Link  401 at Sun Apr 14 13:03:33 2024, MaxMem=  1073741824 cpu:               0.6 elap:               0.3
 (Enter /usr/local/g16/l502.exe)
 Keep R1 ints in memory in symmetry-blocked form, NReq=16208911.
 FoFCou: FMM=F IPFlag=           0 FMFlag=           0 FMFlg1=           0
         NFxFlg=           0 DoJE=F BraDBF=F KetDBF=F FulRan=T
         wScrn=  0.000000 ICntrl=       600 IOpCl=  0 I1Cent=           0 NGrid=           0
         NMat0=    1 NMatS0=   5050 NMatT0=    0 NMatD0=    1 NMtDS0=    0 NMtDT0=    0
 Petite list used in FoFCou.
 Closed shell SCF:
 Using DIIS extrapolation, IDIIS=  1040.
 NGot=  1073741824 LenX=  1070265687 LenY=  1070255246
 Requested convergence on RMS density matrix=1.00D-08 within 128 cycles.
 Requested convergence on MAX density matrix=1.00D-06.
 Requested convergence on             energy=1.00D-06.
 No special actions if energy rises.
 Integral accuracy reduced to 1.0D-05 until final iterations.

 Cycle   1  Pass 0  IDiag  1:
 E= -248.110285794696    
 DIIS: error= 4.42D-02 at cycle   1 NSaved=   1.
 NSaved= 1 IEnMin= 1 EnMin= -248.110285794696     IErMin= 1 ErrMin= 4.42D-02
 ErrMax= 4.42D-02  0.00D+00 EMaxC= 1.00D-01 BMatC= 1.39D-01 BMatP= 1.39D-01
 IDIUse=3 WtCom= 5.58D-01 WtEn= 4.42D-01
 Coeff-Com:  0.100D+01
 Coeff-En:   0.100D+01
 Coeff:      0.100D+01
 Gap=     0.240 Goal=   None    Shift=    0.000
 GapD=    0.240 DampG=1.000 DampE=0.500 DampFc=0.5000 IDamp=-1.
 Damping current iteration by 5.00D-01
 RMSDP=9.97D-03 MaxDP=1.60D-01              OVMax= 1.55D-01

 Cycle   2  Pass 0  IDiag  1:
 E= -248.181144052642     Delta-E=       -0.070858257946 Rises=F Damp=T
 DIIS: error= 7.55D-03 at cycle   2 NSaved=   2.
 NSaved= 2 IEnMin= 2 EnMin= -248.181144052642     IErMin= 2 ErrMin= 7.55D-03
 ErrMax= 7.55D-03  0.00D+00 EMaxC= 1.00D-01 BMatC= 7.07D-03 BMatP= 1.39D-01
 IDIUse=3 WtCom= 9.25D-01 WtEn= 7.55D-02
 Coeff-Com:  0.117D-01 0.988D+00
 Coeff-En:   0.182D-01 0.982D+00
 Coeff:      0.122D-01 0.988D+00
 Gap=     0.240 Goal=   None    Shift=    0.000
 RMSDP=2.20D-03 MaxDP=2.43D-02 DE=-7.09D-02 OVMax= 8.99D-02

 Cycle   3  Pass 0  IDiag  1:
 E= -248.259225305545     Delta-E=       -0.078081252904 Rises=F Damp=F
 DIIS: error= 3.53D-03 at cycle   3 NSaved=   3.
 NSaved= 3 IEnMin= 3 EnMin= -248.259225305545     IErMin= 3 ErrMin= 3.53D-03
 ErrMax= 3.53D-03  0.00D+00 EMaxC= 1.00D-01 BMatC= 1.63D-03 BMatP= 7.07D-03
 IDIUse=3 WtCom= 9.65D-01 WtEn= 3.53D-02
 Coeff-Com: -0.414D-01 0.287D+00 0.754D+00
 Coeff-En:   0.000D+00 0.000D+00 0.100D+01
 Coeff:     -0.400D-01 0.277D+00 0.763D+00
 Gap=     0.236 Goal=   None    Shift=    0.000
 RMSDP=5.46D-04 MaxDP=1.09D-02 DE=-7.81D-02 OVMax= 1.39D-02

 Cycle   4  Pass 0  IDiag  1:
 E= -248.260295775365     Delta-E=       -0.001070469820 Rises=F Damp=F
 DIIS: error= 2.00D-03 at cycle   4 NSaved=   4.
 NSaved= 4 IEnMin= 4 EnMin= -248.260295775365     IErMin= 4 ErrMin= 2.00D-03
 ErrMax= 2.00D-03  0.00D+00 EMaxC= 1.00D-01 BMatC= 3.94D-04 BMatP= 1.63D-03
 IDIUse=3 WtCom= 9.80D-01 WtEn= 2.00D-02
 Coeff-Com: -0.207D-01 0.878D-01 0.382D+00 0.551D+00
 Coeff-En:   0.000D+00 0.000D+00 0.109D+00 0.891D+00
 Coeff:     -0.203D-01 0.861D-01 0.376D+00 0.558D+00
 Gap=     0.239 Goal=   None    Shift=    0.000
 RMSDP=2.15D-04 MaxDP=4.93D-03 DE=-1.07D-03 OVMax= 6.82D-03

 Cycle   5  Pass 0  IDiag  1:
 E= -248.260598448095     Delta-E=       -0.000302672730 Rises=F Damp=F
 DIIS: error= 6.02D-04 at cycle   5 NSaved=   5.
 NSaved= 5 IEnMin= 5 EnMin= -248.260598448095     IErMin= 5 ErrMin= 6.02D-04
 ErrMax= 6.02D-04  0.00D+00 EMaxC= 1.00D-01 BMatC= 3.70D-05 BMatP= 3.94D-04
 IDIUse=3 WtCom= 9.94D-01 WtEn= 6.02D-03
 Coeff-Com: -0.611D-02 0.119D-01 0.101D+00 0.279D+00 0.614D+00
 Coeff-En:   0.000D+00 0.000D+00 0.000D+00 0.107D-01 0.989D+00
 Coeff:     -0.607D-02 0.119D-01 0.101D+00 0.278D+00 0.616D+00
 Gap=     0.238 Goal=   None    Shift=    0.000
 RMSDP=6.59D-05 MaxDP=1.56D-03 DE=-3.03D-04 OVMax= 1.94D-03

 Cycle   6  Pass 0  IDiag  1:
 E= -248.260626029471     Delta-E=       -0.000027581375 Rises=F Damp=F
 DIIS: error= 1.99D-04 at cycle   6 NSaved=   6.
 NSaved= 6 IEnMin= 6 EnMin= -248.260626029471     IErMin= 6 ErrMin= 1.99D-04
 ErrMax= 1.99D-04  0.00D+00 EMaxC= 1.00D-01 BMatC= 2.21D-06 BMatP= 3.70D-05
 IDIUse=3 WtCom= 9.98D-01 WtEn= 1.99D-03
 Coeff-Com: -0.330D-02 0.563D-02 0.545D-01 0.157D+00 0.373D+00 0.413D+00
 Coeff-En:   0.000D+00 0.000D+00 0.000D+00 0.000D+00 0.000D+00 0.100D+01
 Coeff:     -0.330D-02 0.562D-02 0.544D-01 0.157D+00 0.373D+00 0.414D+00
 Gap=     0.238 Goal=   None    Shift=    0.000
 RMSDP=1.92D-05 MaxDP=2.92D-04 DE=-2.76D-05 OVMax= 8.12D-04

 Cycle   7  Pass 0  IDiag  1:
 E= -248.260628344838     Delta-E=       -0.000002315367 Rises=F Damp=F
 DIIS: error= 3.83D-05 at cycle   7 NSaved=   7.
 NSaved= 7 IEnMin= 7 EnMin= -248.260628344838     IErMin= 7 ErrMin= 3.83D-05
 ErrMax= 3.83D-05  0.00D+00 EMaxC= 1.00D-01 BMatC= 7.20D-08 BMatP= 2.21D-06
 IDIUse=1 WtCom= 1.00D+00 WtEn= 0.00D+00
 Coeff-Com: -0.185D-03-0.588D-04 0.361D-02 0.125D-01 0.397D-01 0.170D+00
 Coeff-Com:  0.775D+00
 Coeff:     -0.185D-03-0.588D-04 0.361D-02 0.125D-01 0.397D-01 0.170D+00
 Coeff:      0.775D+00
 Gap=     0.238 Goal=   None    Shift=    0.000
 RMSDP=3.35D-06 MaxDP=6.23D-05 DE=-2.32D-06 OVMax= 1.40D-04

 Initial convergence to 1.0D-05 achieved.  Increase integral accuracy.
 Cycle   8  Pass 1  IDiag  1:
 E= -248.260620670838     Delta-E=        0.000007674000 Rises=F Damp=F
 DIIS: error= 7.07D-06 at cycle   1 NSaved=   1.
 NSaved= 1 IEnMin= 1 EnMin= -248.260620670838     IErMin= 1 ErrMin= 7.07D-06
 ErrMax= 7.07D-06  0.00D+00 EMaxC= 1.00D-01 BMatC= 5.08D-09 BMatP= 5.08D-09
 IDIUse=1 WtCom= 1.00D+00 WtEn= 0.00D+00
 Coeff-Com:  0.100D+01
 Coeff:      0.100D+01
 Gap=     0.238 Goal=   None    Shift=    0.000
 RMSDP=3.35D-06 MaxDP=6.23D-05 DE= 7.67D-06 OVMax= 6.19D-05

 Cycle   9  Pass 1  IDiag  1:
 E= -248.260620668677     Delta-E=        0.000000002161 Rises=F Damp=F
 DIIS: error= 9.24D-06 at cycle   2 NSaved=   2.
 NSaved= 2 IEnMin= 1 EnMin= -248.260620670838     IErMin= 1 ErrMin= 7.07D-06
 ErrMax= 9.24D-06  0.00D+00 EMaxC= 1.00D-01 BMatC= 7.68D-09 BMatP= 5.08D-09
 IDIUse=1 WtCom= 1.00D+00 WtEn= 0.00D+00
 Coeff-Com:  0.554D+00 0.446D+00
 Coeff:      0.554D+00 0.446D+00
 Gap=     0.238 Goal=   None    Shift=    0.000
 RMSDP=7.77D-07 MaxDP=2.33D-05 DE= 2.16D-09 OVMax= 4.01D-05

 Cycle  10  Pass 1  IDiag  1:
 E= -248.260620675814     Delta-E=       -0.000000007137 Rises=F Damp=F
 DIIS: error= 1.02D-06 at cycle   3 NSaved=   3.
 NSaved= 3 IEnMin= 3 EnMin= -248.260620675814     IErMin= 3 ErrMin= 1.02D-06
 ErrMax= 1.02D-06  0.00D+00 EMaxC= 1.00D-01 BMatC= 5.42D-11 BMatP= 5.08D-09
 IDIUse=1 WtCom= 1.00D+00 WtEn= 0.00D+00
 Coeff-Com:  0.577D-01 0.908D-01 0.852D+00
 Coeff:      0.577D-01 0.908D-01 0.852D+00
 Gap=     0.238 Goal=   None    Shift=    0.000
 RMSDP=1.69D-07 MaxDP=2.92D-06 DE=-7.14D-09 OVMax= 6.44D-06

 Cycle  11  Pass 1  IDiag  1:
 E= -248.260620675791     Delta-E=        0.000000000023 Rises=F Damp=F
 DIIS: error= 1.17D-06 at cycle   4 NSaved=   4.
 NSaved= 4 IEnMin= 3 EnMin= -248.260620675814     IErMin= 3 ErrMin= 1.02D-06
 ErrMax= 1.17D-06  0.00D+00 EMaxC= 1.00D-01 BMatC= 7.42D-11 BMatP= 5.42D-11
 IDIUse=1 WtCom= 1.00D+00 WtEn= 0.00D+00
 Coeff-Com: -0.126D-01 0.209D-01 0.594D+00 0.398D+00
 Coeff:     -0.126D-01 0.209D-01 0.594D+00 0.398D+00
 Gap=     0.238 Goal=   None    Shift=    0.000
 RMSDP=9.71D-08 MaxDP=1.55D-06 DE= 2.27D-11 OVMax= 3.81D-06

 Cycle  12  Pass 1  IDiag  1:
 E= -248.260620675871     Delta-E=       -0.000000000080 Rises=F Damp=F
 DIIS: error= 6.13D-08 at cycle   5 NSaved=   5.
 NSaved= 5 IEnMin= 5 EnMin= -248.260620675871     IErMin= 5 ErrMin= 6.13D-08
 ErrMax= 6.13D-08  0.00D+00 EMaxC= 1.00D-01 BMatC= 3.54D-13 BMatP= 5.42D-11
 IDIUse=1 WtCom= 1.00D+00 WtEn= 0.00D+00
 Coeff-Com: -0.648D-02 0.769D-02 0.238D+00 0.162D+00 0.598D+00
 Coeff:     -0.648D-02 0.769D-02 0.238D+00 0.162D+00 0.598D+00
 Gap=     0.238 Goal=   None    Shift=    0.000
 RMSDP=6.43D-09 MaxDP=1.15D-07 DE=-7.95D-11 OVMax= 1.67D-07

 SCF Done:  E(RB3LYP) =  -248.260620676     A.U. after   12 cycles
            NFock= 12  Conv=0.64D-08     -V/T= 2.0059
 KE= 2.467950406999D+02 PE=-1.003470679530D+03 EE= 2.947782008985D+02
 Leave Link  502 at Sun Apr 14 13:03:35 2024, MaxMem=  1073741824 cpu:               5.1 elap:               2.6
 (Enter /usr/local/g16/l601.exe)
 Copying SCF densities to generalized density rwf, IOpCl= 0 IROHF=0.

 **********************************************************************

            Population analysis using the SCF Density.

 **********************************************************************

 Orbital symmetries:
       Occupied  (A1) (B2) (A1) (A1) (B2) (A1) (A1) (A1) (B2) (B2)
                 (A1) (A1) (B2) (A1) (B2) (B1) (A1) (B2) (B1) (A2)
                 (A1)
       Virtual   (B1) (A2) (A1) (B2) (A1) (B1) (A1) (B2) (A1) (B2)
                 (A1) (B2) (B2) (A1) (B1) (B2) (A2) (B1) (A1) (A1)
                 (B2) (A1) (A2) (B1) (A1) (B2) (B2) (A1) (B2) (A1)
                 (B1) (A1) (A1) (B2) (A1) (B2) (B2) (A1) (A1) (B2)
                 (A2) (B1) (A1) (B2) (A2) (B1) (B1) (A2) (A1) (A1)
                 (A1) (B2) (A1) (B2) (A1) (A2) (B2) (B1) (B2) (A1)
                 (B1) (A2) (B1) (A1) (B2) (A1) (A1) (A2) (B2) (B2)
                 (A1) (B2) (A1) (A1) (B2) (A1) (A1) (B2) (A1)
 The electronic state is 1-A1.
 Alpha  occ. eigenvalues --  -14.31455 -10.20949 -10.20948 -10.19877 -10.18762
 Alpha  occ. eigenvalues --  -10.18759  -0.98007  -0.82235  -0.77278  -0.63988
 Alpha  occ. eigenvalues --   -0.63099  -0.53855  -0.49590  -0.45741  -0.42781
 Alpha  occ. eigenvalues --   -0.42088  -0.40562  -0.35816  -0.29870  -0.26866
 Alpha  occ. eigenvalues --   -0.24648
 Alpha virt. eigenvalues --   -0.00838   0.00274   0.08509   0.13318   0.15701
 Alpha virt. eigenvalues --    0.17962   0.18123   0.18427   0.26351   0.31573
 Alpha virt. eigenvalues --    0.35081   0.35402   0.45499   0.46601   0.50816
 Alpha virt. eigenvalues --    0.56484   0.57710   0.58885   0.59002   0.61550
 Alpha virt. eigenvalues --    0.61590   0.62382   0.65840   0.69132   0.70138
 Alpha virt. eigenvalues --    0.72865   0.80961   0.81342   0.83467   0.85159
 Alpha virt. eigenvalues --    0.87158   0.87598   0.91513   0.94590   0.98775
 Alpha virt. eigenvalues --    1.07987   1.09095   1.14018   1.20230   1.24289
 Alpha virt. eigenvalues --    1.25511   1.35335   1.38426   1.47816   1.49468
 Alpha virt. eigenvalues --    1.50087   1.52790   1.55142   1.70077   1.71668
 Alpha virt. eigenvalues --    1.87243   1.88208   1.95768   1.98971   2.13845
 Alpha virt. eigenvalues --    2.17077   2.22132   2.22835   2.26937   2.28891
 Alpha virt. eigenvalues --    2.35625   2.37929   2.46266   2.54561   2.56242
 Alpha virt. eigenvalues --    2.66107   2.75936   2.81889   2.84922   2.85274
 Alpha virt. eigenvalues --    2.88471   3.12782   3.53698   4.07208   4.11810
 Alpha virt. eigenvalues --    4.21263   4.26726   4.34090   4.62651
          Condensed to atoms (all electrons):
               1          2          3          4          5          6
     1  C    4.732779   0.526724  -0.093399  -0.049926  -0.031713   0.524691
     2  N    0.526724   6.550606   0.526724  -0.032343  -0.061445  -0.032343
     3  C   -0.093399   0.526724   4.732779   0.524691  -0.031713  -0.049926
     4  C   -0.049926  -0.032343   0.524691   4.923335   0.564591  -0.023982
     5  C   -0.031713  -0.061445  -0.031713   0.564591   4.802986   0.564591
     6  C    0.524691  -0.032343  -0.049926  -0.023982   0.564591   4.923335
     7  H   -0.036835   0.006096   0.000380   0.006616  -0.047397   0.348314
     8  H    0.005789  -0.000345   0.005789  -0.048336   0.364562  -0.048336
     9  H    0.000380   0.006096  -0.036835   0.348314  -0.047397   0.006616
    10  H    0.005339  -0.059010   0.377658  -0.075133   0.004165   0.000676
    11  H    0.377658  -0.059010   0.005339   0.000676   0.004165  -0.075133
               7          8          9         10         11
     1  C   -0.036835   0.005789   0.000380   0.005339   0.377658
     2  N    0.006096  -0.000345   0.006096  -0.059010  -0.059010
     3  C    0.000380   0.005789  -0.036835   0.377658   0.005339
     4  C    0.006616  -0.048336   0.348314  -0.075133   0.000676
     5  C   -0.047397   0.364562  -0.047397   0.004165   0.004165
     6  C    0.348314  -0.048336   0.006616   0.000676  -0.075133
     7  H    0.601241  -0.007771  -0.000152   0.000043  -0.002685
     8  H   -0.007771   0.598282  -0.007771  -0.000231  -0.000231
     9  H   -0.000152  -0.007771   0.601241  -0.002685   0.000043
    10  H    0.000043  -0.000231  -0.002685   0.622246  -0.000179
    11  H   -0.002685  -0.000231   0.000043  -0.000179   0.622246
 Mulliken charges:
               1
     1  C    0.038512
     2  N   -0.371749
     3  C    0.038512
     4  C   -0.138502
     5  C   -0.085395
     6  C   -0.138502
     7  H    0.132150
     8  H    0.138599
     9  H    0.132150
    10  H    0.127112
    11  H    0.127112
 Sum of Mulliken charges =  -0.00000
 Mulliken charges with hydrogens summed into heavy atoms:
               1
     1  C    0.165625
     2  N   -0.371749
     3  C    0.165625
     4  C   -0.006352
     5  C    0.053204
     6  C   -0.006352
 Electronic spatial extent (au):  <R**2>=            409.2713
 Charge=             -0.0000 electrons
 Dipole moment (field-independent basis, Debye):
    X=             -0.0000    Y=              0.0000    Z=             -2.0808  Tot=              2.0808
 Quadrupole moment (field-independent basis, Debye-Ang):
   XX=            -36.1526   YY=            -30.0980   ZZ=            -35.5215
   XY=              0.0000   XZ=              0.0000   YZ=              0.0000
 Traceless Quadrupole moment (field-independent basis, Debye-Ang):
   XX=             -2.2285   YY=              3.8260   ZZ=             -1.5974
   XY=              0.0000   XZ=              0.0000   YZ=              0.0000
 Octapole moment (field-independent basis, Debye-Ang**2):
  XXX=             -0.0000  YYY=             -0.0000  ZZZ=            -12.0251  XYY=             -0.0000
  XXY=             -0.0000  XXZ=              1.4160  XZZ=             -0.0000  YZZ=              0.0000
  YYZ=              1.0676  XYZ=              0.0000
 Hexadecapole moment (field-independent basis, Debye-Ang**3):
 XXXX=            -35.3832 YYYY=           -240.9834 ZZZZ=           -260.1832 XXXY=             -0.0000
 XXXZ=              0.0000 YYYX=             -0.0000 YYYZ=              0.0000 ZZZX=              0.0000
 ZZZY=              0.0000 XXYY=            -52.7438 XXZZ=            -50.8770 YYZZ=            -77.0139
 XXYZ=              0.0000 YYXZ=              0.0000 ZZXY=             -0.0000
 N-N= 2.136368172562D+02 E-N=-1.003470674482D+03  KE= 2.467950406999D+02
 Symmetry A1   KE= 1.608230163220D+02
 Symmetry A2   KE= 2.328913548724D+00
 Symmetry B1   KE= 4.764304871717D+00
 Symmetry B2   KE= 7.887880595746D+01
 No NMR shielding tensors so no spin-rotation constants.
 Leave Link  601 at Sun Apr 14 13:03:35 2024, MaxMem=  1073741824 cpu:               0.1 elap:               0.1
 (Enter /usr/local/g16/l701.exe)
 ... and contract with generalized density number  0.
 Compute integral first derivatives.
 Leave Link  701 at Sun Apr 14 13:03:36 2024, MaxMem=  1073741824 cpu:               0.1 elap:               0.1
 (Enter /usr/local/g16/l702.exe)
 L702 exits ... SP integral derivatives will be done elsewhere.
 Leave Link  702 at Sun Apr 14 13:03:36 2024, MaxMem=  1073741824 cpu:               0.0 elap:               0.0
 (Enter /usr/local/g16/l703.exe)
 Integral derivatives from FoFJK, PRISM(SPDF).
 Compute integral first derivatives, UseDBF=F ICtDFT=           0.
 Calling FoFJK, ICntrl=      2127 FMM=F ISym2X=1 I1Cent= 0 IOpClX= 0 NMat=1 NMatS=1 NMatT=0.
 FoFJK:  IHMeth= 1 ICntrl=    2127 DoSepK=F KAlg= 0 I1Cent=           0 FoldK=F
 IRaf=         0 NMat=       1 IRICut=       1 DoRegI=T DoRafI=F ISym2E= 1 IDoP0=0 IntGTp=1.
 FoFCou: FMM=F IPFlag=           0 FMFlag=      100000 FMFlg1=         800
         NFxFlg=           0 DoJE=F BraDBF=F KetDBF=F FulRan=T
         wScrn=  0.000000 ICntrl=      2127 IOpCl=  0 I1Cent=           0 NGrid=           0
         NMat0=    1 NMatS0=      1 NMatT0=    0 NMatD0=    1 NMtDS0=    0 NMtDT0=    0
 Petite list used in FoFCou.
 Leave Link  703 at Sun Apr 14 13:03:37 2024, MaxMem=  1073741824 cpu:               2.0 elap:               1.0
 (Enter /usr/local/g16/l716.exe)
 Dipole        =-5.83363687D-17-8.88178420D-16-8.18646744D-01
 ***** Axes restored to original set *****
 -------------------------------------------------------------------
 Center     Atomic                   Forces (Hartrees/Bohr)
 Number     Number              X              Y              Z
 -------------------------------------------------------------------
      1        6          -0.064003112    0.000000001   -0.064479873
      2        7          -0.074459895    0.000000001    0.044944367
      3        6           0.027234045   -0.000000000    0.086673867
      4        6           0.064081792   -0.000000001    0.034536577
      5        6           0.058395870   -0.000000001   -0.035248041
      6        6          -0.000702618   -0.000000000   -0.072792565
      7        1          -0.000919135    0.000000000    0.010447786
      8        1          -0.008346341    0.000000000    0.005037893
      9        1          -0.009672765    0.000000000   -0.004054462
     10        1           0.002127927   -0.000000000   -0.005959108
     11        1           0.006264231   -0.000000000    0.000893559
 -------------------------------------------------------------------
 Cartesian Forces:  Max     0.086673867 RMS     0.034692809
 Leave Link  716 at Sun Apr 14 13:03:37 2024, MaxMem=  1073741824 cpu:               0.0 elap:               0.0
 (Enter /usr/local/g16/l103.exe)

 GradGradGradGradGradGradGradGradGradGradGradGradGradGradGradGradGradGrad
 Berny optimization.
 FormGI is forming the generalized inverse of G from B-inverse, IUseBI=4.
 Internal  Forces:  Max     0.092110152 RMS     0.026522923
 Search for a local minimum.
 Step number   1 out of a maximum of   57
 All quantities printed in internal units (Hartrees-Bohrs-Radians)
 RMS Force = .26523D-01 SwitMx=.10000D-02 MixMth= 1
 Mixed Optimization -- RFO/linear search
 Second derivative matrix not updated -- first step.
 ITU=  0
     Eigenvalues ---    0.02850   0.02851   0.02855   0.02859   0.02922
     Eigenvalues ---    0.03018   0.03064   0.03324   0.16000   0.16000
     Eigenvalues ---    0.16000   0.16000   0.16000   0.22000   0.22000
     Eigenvalues ---    0.23210   0.33224   0.33224   0.33279   0.33279
     Eigenvalues ---    0.33284   0.50289   0.53379   0.56537   0.56757
     Eigenvalues ---    0.73549   0.75868
 RFO step:  Lambda=-4.74602160D-02 EMin= 2.84957634D-02
 Linear search not attempted -- first point.
 Iteration  1 RMS(Cart)=  0.04789150 RMS(Int)=  0.00027248
 Iteration  2 RMS(Cart)=  0.00027923 RMS(Int)=  0.00004261
 Iteration  3 RMS(Cart)=  0.00000010 RMS(Int)=  0.00004261
 ITry= 1 IFail=0 DXMaxC= 1.25D-01 DCOld= 1.00D+10 DXMaxT= 3.00D-01 DXLimC= 3.00D+00 Rises=F
 ClnCor:  largest displacement from symmetrization is 1.05D-08 for atom     2.
 Variable       Old X    -DE/DX   Delta X   Delta X   Delta X     New X
                                 (Linear)    (Quad)   (Total)
    R1        2.39357   0.09211   0.00000   0.11535   0.11541   2.50898
    R2        2.53792   0.05984   0.00000   0.09790   0.09790   2.63582
    R3        2.08660  -0.00602   0.00000  -0.01584  -0.01584   2.07076
    R4        2.39357   0.09211   0.00000   0.11535   0.11541   2.50898
    R5        2.53792   0.05984   0.00000   0.09790   0.09790   2.63582
    R6        2.08660  -0.00602   0.00000  -0.01584  -0.01584   2.07076
    R7        2.53555   0.06404   0.00000   0.09975   0.09969   2.63524
    R8        2.08564  -0.01039   0.00000  -0.02731  -0.02731   2.05832
    R9        2.53555   0.06404   0.00000   0.09975   0.09969   2.63524
   R10        2.08555  -0.00975   0.00000  -0.02563  -0.02563   2.05992
   R11        2.08564  -0.01039   0.00000  -0.02731  -0.02731   2.05832
    A1        2.16269  -0.00718   0.00000  -0.01819  -0.01814   2.14455
    A2        2.02793   0.00564   0.00000   0.01897   0.01894   2.04687
    A3        2.09256   0.00154   0.00000  -0.00078  -0.00080   2.09176
    A4        2.05546  -0.00132   0.00000   0.02000   0.02016   2.07563
    A5        2.16269  -0.00718   0.00000  -0.01819  -0.01814   2.14455
    A6        2.02793   0.00564   0.00000   0.01897   0.01894   2.04687
    A7        2.09256   0.00154   0.00000  -0.00078  -0.00080   2.09176
    A8        2.06326   0.00309   0.00000   0.00080   0.00074   2.06400
    A9        2.11070  -0.00307   0.00000  -0.00774  -0.00771   2.10299
   A10        2.10922  -0.00002   0.00000   0.00694   0.00698   2.11620
   A11        2.05901   0.00950   0.00000   0.01477   0.01465   2.07365
   A12        2.11209  -0.00475   0.00000  -0.00739  -0.00732   2.10477
   A13        2.11209  -0.00475   0.00000  -0.00739  -0.00732   2.10477
   A14        2.06326   0.00309   0.00000   0.00080   0.00074   2.06400
   A15        2.11070  -0.00307   0.00000  -0.00774  -0.00771   2.10299
   A16        2.10922  -0.00002   0.00000   0.00694   0.00698   2.11620
    D1       -0.00000   0.00000   0.00000   0.00000   0.00000   0.00000
    D2        3.14159  -0.00000   0.00000  -0.00000   0.00000   3.14159
    D3        0.00000  -0.00000   0.00000  -0.00000   0.00000   0.00000
    D4        3.14159  -0.00000   0.00000  -0.00000   0.00000   3.14159
    D5        3.14159   0.00000   0.00000   0.00000   0.00000   3.14159
    D6       -0.00000   0.00000   0.00000   0.00000   0.00000   0.00000
    D7        0.00000  -0.00000   0.00000  -0.00000   0.00000   0.00000
    D8        3.14159  -0.00000   0.00000  -0.00000   0.00000   3.14159
    D9       -0.00000   0.00000   0.00000   0.00000   0.00000   0.00000
   D10        3.14159   0.00000   0.00000   0.00000   0.00000   3.14159
   D11        3.14159  -0.00000   0.00000  -0.00000   0.00000   3.14159
   D12        0.00000  -0.00000   0.00000  -0.00000   0.00000   0.00000
   D13        0.00000  -0.00000   0.00000  -0.00000   0.00000   0.00000
   D14        3.14159   0.00000   0.00000   0.00000   0.00000   3.14159
   D15        3.14159   0.00000   0.00000   0.00000   0.00000   3.14159
   D16       -0.00000   0.00000   0.00000   0.00000   0.00000   0.00000
   D17       -0.00000   0.00000   0.00000   0.00000   0.00000   0.00000
   D18        3.14159  -0.00000   0.00000  -0.00000   0.00000   3.14159
   D19        3.14159  -0.00000   0.00000  -0.00000   0.00000   3.14159
   D20        0.00000  -0.00000   0.00000  -0.00000   0.00000   0.00000
         Item               Value     Threshold  Converged?
 Maximum Force            0.092110     0.000450     NO 
 RMS     Force            0.026523     0.000300     NO 
 Maximum Displacement     0.124909     0.001800     NO 
 RMS     Displacement     0.047937     0.001200     NO 
 Predicted change in Energy=-2.540307D-02
 Lowest energy point so far.  Saving SCF results.
 GradGradGradGradGradGradGradGradGradGradGradGradGradGradGradGradGradGrad

 Leave Link  103 at Sun Apr 14 13:03:37 2024, MaxMem=  1073741824 cpu:               0.0 elap:               0.0
 (Enter /usr/local/g16/l202.exe)
                          Input orientation:                          
 ---------------------------------------------------------------------
 Center     Atomic      Atomic             Coordinates (Angstroms)
 Number     Number       Type             X           Y           Z
 ---------------------------------------------------------------------
      1          6           0       -0.056183    0.000000   -0.035171
      2          7           0       -0.042797    0.000000    1.292453
      3          6           0        1.125691   -0.000000    1.922853
      4          6           0        2.348219   -0.000000    1.251334
      5          6           0        2.335534   -0.000000   -0.143119
      6          6           0        1.107589   -0.000000   -0.804035
      7          1           0        1.051366   -0.000000   -1.891801
      8          1           0        3.268766   -0.000000   -0.706422
      9          1           0        3.284515   -0.000000    1.807884
     10          1           0        1.105234   -0.000000    3.018461
     11          1           0       -1.035142    0.000000   -0.527526
 ---------------------------------------------------------------------
                    Distance matrix (angstroms):
                    1          2          3          4          5
     1  C    0.000000
     2  N    1.327692   0.000000
     3  C    2.287069   1.327692   0.000000
     4  C    2.726948   2.391370   1.394817   0.000000
     5  C    2.394151   2.778007   2.394151   1.394510   0.000000
     6  C    1.394817   2.391370   2.726948   2.400772   1.394510
     7  H    2.161883   3.366997   3.815379   3.400166   2.169557
     8  H    3.392029   3.868068   3.392029   2.163381   1.090061
     9  H    3.815379   3.366997   2.161883   1.089219   2.169557
    10  H    3.267042   2.072939   1.095799   2.160498   3.392525
    11  H    1.095799   2.072939   3.267042   3.822496   3.392525
                    6          7          8          9         10
     6  C    0.000000
     7  H    1.089219   0.000000
     8  H    2.163381   2.514356   0.000000
     9  H    3.400166   4.321414   2.514356   0.000000
    10  H    3.822496   4.910558   4.307624   2.492943   0.000000
    11  H    2.160498   2.492943   4.307624   4.910558   4.141888
                   11
    11  H    0.000000
 Stoichiometry    C5H5N
 Framework group  C2V[C2(HCN),SGV(C4H4)]
 Deg. of freedom    10
 Full point group                 C2V     NOp   4
 RotChk:  IX=0 Diff= 2.62D-15
 Largest Abelian subgroup         C2V     NOp   4
 Largest concise Abelian subgroup C2      NOp   2
                         Standard orientation:                         
 ---------------------------------------------------------------------
 Center     Atomic      Atomic             Coordinates (Angstroms)
 Number     Number       Type             X           Y           Z
 ---------------------------------------------------------------------
      1          6           0       -0.000000    1.143535    0.725319
      2          7           0       -0.000000   -0.000000    1.399927
      3          6           0       -0.000000   -1.143535    0.725319
      4          6           0        0.000000   -1.200386   -0.668339
      5          6           0        0.000000    0.000000   -1.378080
      6          6           0        0.000000    1.200386   -0.668339
      7          1           0        0.000000    2.160707   -1.182323
      8          1           0        0.000000    0.000000   -2.468141
      9          1           0       -0.000000   -2.160707   -1.182323
     10          1           0       -0.000000   -2.070944    1.309003
     11          1           0        0.000000    2.070944    1.309003
 ---------------------------------------------------------------------
 Rotational constants (GHZ):           6.0148803           5.8814056           2.9736971
 Leave Link  202 at Sun Apr 14 13:03:37 2024, MaxMem=  1073741824 cpu:               0.0 elap:               0.0
 (Enter /usr/local/g16/l301.exe)
 Standard basis: 6-31G(d) (6D, 7F)
 Ernie: Thresh=  0.10000D-02 Tol=  0.10000D-05 Strict=F.
 There are    44 symmetry adapted cartesian basis functions of A1  symmetry.
 There are    10 symmetry adapted cartesian basis functions of A2  symmetry.
 There are    14 symmetry adapted cartesian basis functions of B1  symmetry.
 There are    32 symmetry adapted cartesian basis functions of B2  symmetry.
 There are    44 symmetry adapted basis functions of A1  symmetry.
 There are    10 symmetry adapted basis functions of A2  symmetry.
 There are    14 symmetry adapted basis functions of B1  symmetry.
 There are    32 symmetry adapted basis functions of B2  symmetry.
   100 basis functions,   188 primitive gaussians,   100 cartesian basis functions
    21 alpha electrons       21 beta electrons
       nuclear repulsion energy       206.3029633410 Hartrees.
 IExCor=  402 DFT=T Ex+Corr=B3LYP ExCW=0 ScaHFX=  0.200000
 ScaDFX=  0.800000  0.720000  1.000000  0.810000 ScalE2=  1.000000  1.000000
 IRadAn=      5 IRanWt=     -1 IRanGd=            0 ICorTp=0 IEmpDi=  4
 NAtoms=   11 NActive=   11 NUniq=    7 SFac= 2.47D+00 NAtFMM=   60 NAOKFM=F Big=F
 Integral buffers will be    131072 words long.
 Raffenetti 2 integral format.
 Two-electron integral symmetry is turned on.
 Leave Link  301 at Sun Apr 14 13:03:37 2024, MaxMem=  1073741824 cpu:               0.0 elap:               0.0
 (Enter /usr/local/g16/l302.exe)
 NPDir=0 NMtPBC=     1 NCelOv=     1 NCel=       1 NClECP=     1 NCelD=      1
         NCelK=      1 NCelE2=     1 NClLst=     1 CellRange=     0.0.
 One-electron integrals computed using PRISM.
 One-electron integral symmetry used in STVInt
 NBasis=   100 RedAO= T EigKep=  8.56D-04  NBF=    44    10    14    32
 NBsUse=   100 1.00D-06 EigRej= -1.00D+00 NBFU=    44    10    14    32
 Precomputing XC quadrature grid using
 IXCGrd= 4 IRadAn=           5 IRanWt=          -1 IRanGd=           0 AccXCQ= 0.00D+00.
 Generated NRdTot=       0 NPtTot=           0 NUsed=           0 NTot=          32
 NSgBfM=   100   100   100   100   100 MxSgAt=    11 MxSgA2=    11.
 Leave Link  302 at Sun Apr 14 13:03:37 2024, MaxMem=  1073741824 cpu:               0.2 elap:               0.1
 (Enter /usr/local/g16/l303.exe)
 DipDrv:  MaxL=1.
 Leave Link  303 at Sun Apr 14 13:03:37 2024, MaxMem=  1073741824 cpu:               0.0 elap:               0.0
 (Enter /usr/local/g16/l401.exe)
 Initial guess from the checkpoint file:  "pyridine-opt.chk"
 B after Tr=    -0.000000   -0.000000   -0.000000
         Rot=    1.000000    0.000000    0.000000   -0.000000 Ang=   0.00 deg.
 Guess basis will be translated and rotated to current coordinates.
 JPrj=2 DoOrth=T DoCkMO=T.
 Initial guess orbital symmetries:
       Occupied  (A1) (B2) (A1) (A1) (B2) (A1) (A1) (A1) (B2) (B2)
                 (A1) (A1) (B2) (A1) (B2) (B1) (A1) (B2) (B1) (A2)
                 (A1)
       Virtual   (B1) (A2) (A1) (B2) (A1) (B1) (A1) (B2) (A1) (B2)
                 (A1) (B2) (B2) (A1) (B1) (B2) (A2) (B1) (A1) (A1)
                 (B2) (A1) (A2) (B1) (A1) (B2) (B2) (A1) (B2) (A1)
                 (B1) (A1) (A1) (B2) (A1) (B2) (B2) (A1) (A1) (B2)
                 (A2) (B1) (A1) (B2) (A2) (B1) (B1) (A2) (A1) (A1)
                 (A1) (B2) (A1) (B2) (A1) (A2) (B2) (B1) (B2) (A1)
                 (B1) (A2) (B1) (A1) (B2) (A1) (A1) (A2) (B2) (B2)
                 (A1) (B2) (A1) (A1) (B2) (A1) (A1) (B2) (A1)
 The electronic state of the initial guess is 1-A1.
 Generating alternative initial guess.
 ExpMin= 1.61D-01 ExpMax= 4.17D+03 ExpMxC= 6.27D+02 IAcc=3 IRadAn=         5 AccDes= 0.00D+00
 Harris functional with IExCor=  402 and IRadAn=       5 diagonalized for initial guess.
 HarFok:  IExCor=  402 AccDes= 0.00D+00 IRadAn=         5 IDoV= 1 UseB2=F ITyADJ=14
 ICtDFT=  3500011 ScaDFX=  1.000000  1.000000  1.000000  1.000000
 FoFCou: FMM=F IPFlag=           0 FMFlag=      100000 FMFlg1=           0
         NFxFlg=           0 DoJE=T BraDBF=F KetDBF=T FulRan=T
         wScrn=  0.000000 ICntrl=       500 IOpCl=  0 I1Cent=   200000004 NGrid=           0
         NMat0=    1 NMatS0=      1 NMatT0=    0 NMatD0=    1 NMtDS0=    0 NMtDT0=    0
 Petite list used in FoFCou.
 Harris En= -248.280276219754    
 Leave Link  401 at Sun Apr 14 13:03:37 2024, MaxMem=  1073741824 cpu:               0.6 elap:               0.3
 (Enter /usr/local/g16/l502.exe)
 Keep R1 ints in memory in symmetry-blocked form, NReq=16208911.
 FoFCou: FMM=F IPFlag=           0 FMFlag=           0 FMFlg1=           0
         NFxFlg=           0 DoJE=F BraDBF=F KetDBF=F FulRan=T
         wScrn=  0.000000 ICntrl=       600 IOpCl=  0 I1Cent=           0 NGrid=           0
         NMat0=    1 NMatS0=   5050 NMatT0=    0 NMatD0=    1 NMtDS0=    0 NMtDT0=    0
 Petite list used in FoFCou.
 Closed shell SCF:
 Using DIIS extrapolation, IDIIS=  1040.
 NGot=  1073741824 LenX=  1070265687 LenY=  1070255246
 Requested convergence on RMS density matrix=1.00D-08 within 128 cycles.
 Requested convergence on MAX density matrix=1.00D-06.
 Requested convergence on             energy=1.00D-06.
 No special actions if energy rises.
 Integral accuracy reduced to 1.0D-05 until final iterations.

 Cycle   1  Pass 0  IDiag  1:
 E= -248.278647736139    
 DIIS: error= 6.67D-03 at cycle   1 NSaved=   1.
 NSaved= 1 IEnMin= 1 EnMin= -248.278647736139     IErMin= 1 ErrMin= 6.67D-03
 ErrMax= 6.67D-03  0.00D+00 EMaxC= 1.00D-01 BMatC= 4.35D-03 BMatP= 4.35D-03
 IDIUse=3 WtCom= 9.33D-01 WtEn= 6.67D-02
 Coeff-Com:  0.100D+01
 Coeff-En:   0.100D+01
 Coeff:      0.100D+01
 Gap=     0.230 Goal=   None    Shift=    0.000
 GapD=    0.230 DampG=1.000 DampE=1.000 DampFc=1.0000 IDamp=-1.
 RMSDP=1.27D-03 MaxDP=2.58D-02              OVMax= 2.29D-02

 Cycle   2  Pass 0  IDiag  1:
 E= -248.283562620782     Delta-E=       -0.004914884643 Rises=F Damp=F
 DIIS: error= 2.86D-03 at cycle   2 NSaved=   2.
 NSaved= 2 IEnMin= 2 EnMin= -248.283562620782     IErMin= 2 ErrMin= 2.86D-03
 ErrMax= 2.86D-03  0.00D+00 EMaxC= 1.00D-01 BMatC= 9.58D-04 BMatP= 4.35D-03
 IDIUse=3 WtCom= 9.71D-01 WtEn= 2.86D-02
 Coeff-Com:  0.265D+00 0.735D+00
 Coeff-En:   0.000D+00 0.100D+01
 Coeff:      0.257D+00 0.743D+00
 Gap=     0.230 Goal=   None    Shift=    0.000
 RMSDP=5.77D-04 MaxDP=1.16D-02 DE=-4.91D-03 OVMax= 1.15D-02

 Cycle   3  Pass 0  IDiag  1:
 E= -248.284049993581     Delta-E=       -0.000487372799 Rises=F Damp=F
 DIIS: error= 1.79D-03 at cycle   3 NSaved=   3.
 NSaved= 3 IEnMin= 3 EnMin= -248.284049993581     IErMin= 3 ErrMin= 1.79D-03
 ErrMax= 1.79D-03  0.00D+00 EMaxC= 1.00D-01 BMatC= 4.10D-04 BMatP= 9.58D-04
 IDIUse=3 WtCom= 9.82D-01 WtEn= 1.79D-02
 Coeff-Com:  0.159D-01 0.394D+00 0.591D+00
 Coeff-En:   0.000D+00 0.310D+00 0.690D+00
 Coeff:      0.156D-01 0.392D+00 0.592D+00
 Gap=     0.226 Goal=   None    Shift=    0.000
 RMSDP=2.88D-04 MaxDP=6.61D-03 DE=-4.87D-04 OVMax= 9.84D-03

 Cycle   4  Pass 0  IDiag  1:
 E= -248.284375547671     Delta-E=       -0.000325554090 Rises=F Damp=F
 DIIS: error= 1.09D-03 at cycle   4 NSaved=   4.
 NSaved= 4 IEnMin= 4 EnMin= -248.284375547671     IErMin= 4 ErrMin= 1.09D-03
 ErrMax= 1.09D-03  0.00D+00 EMaxC= 1.00D-01 BMatC= 7.36D-05 BMatP= 4.10D-04
 IDIUse=3 WtCom= 9.89D-01 WtEn= 1.09D-02
 Coeff-Com: -0.585D-02 0.204D+00 0.394D+00 0.408D+00
 Coeff-En:   0.000D+00 0.000D+00 0.104D+00 0.896D+00
 Coeff:     -0.578D-02 0.202D+00 0.391D+00 0.413D+00
 Gap=     0.228 Goal=   None    Shift=    0.000
 RMSDP=9.02D-05 MaxDP=1.91D-03 DE=-3.26D-04 OVMax= 3.69D-03

 Cycle   5  Pass 0  IDiag  1:
 E= -248.284446245840     Delta-E=       -0.000070698169 Rises=F Damp=F
 DIIS: error= 9.14D-05 at cycle   5 NSaved=   5.
 NSaved= 5 IEnMin= 5 EnMin= -248.284446245840     IErMin= 5 ErrMin= 9.14D-05
 ErrMax= 9.14D-05  0.00D+00 EMaxC= 1.00D-01 BMatC= 1.08D-06 BMatP= 7.36D-05
 IDIUse=1 WtCom= 1.00D+00 WtEn= 0.00D+00
 Coeff-Com: -0.293D-02 0.349D-01 0.969D-01 0.146D+00 0.725D+00
 Coeff:     -0.293D-02 0.349D-01 0.969D-01 0.146D+00 0.725D+00
 Gap=     0.228 Goal=   None    Shift=    0.000
 RMSDP=1.54D-05 MaxDP=2.55D-04 DE=-7.07D-05 OVMax= 6.53D-04

 Cycle   6  Pass 0  IDiag  1:
 E= -248.284447011613     Delta-E=       -0.000000765773 Rises=F Damp=F
 DIIS: error= 6.87D-05 at cycle   6 NSaved=   6.
 NSaved= 6 IEnMin= 6 EnMin= -248.284447011613     IErMin= 6 ErrMin= 6.87D-05
 ErrMax= 6.87D-05  0.00D+00 EMaxC= 1.00D-01 BMatC= 3.85D-07 BMatP= 1.08D-06
 IDIUse=1 WtCom= 1.00D+00 WtEn= 0.00D+00
 Coeff-Com: -0.111D-02 0.325D-02 0.261D-01 0.542D-01 0.451D+00 0.467D+00
 Coeff:     -0.111D-02 0.325D-02 0.261D-01 0.542D-01 0.451D+00 0.467D+00
 Gap=     0.228 Goal=   None    Shift=    0.000
 RMSDP=6.39D-06 MaxDP=1.15D-04 DE=-7.66D-07 OVMax= 3.16D-04

 Initial convergence to 1.0D-05 achieved.  Increase integral accuracy.
 Cycle   7  Pass 1  IDiag  1:
 E= -248.284436382420     Delta-E=        0.000010629194 Rises=F Damp=F
 DIIS: error= 6.20D-06 at cycle   1 NSaved=   1.
 NSaved= 1 IEnMin= 1 EnMin= -248.284436382420     IErMin= 1 ErrMin= 6.20D-06
 ErrMax= 6.20D-06  0.00D+00 EMaxC= 1.00D-01 BMatC= 3.70D-09 BMatP= 3.70D-09
 IDIUse=1 WtCom= 1.00D+00 WtEn= 0.00D+00
 Coeff-Com:  0.100D+01
 Coeff:      0.100D+01
 Gap=     0.228 Goal=   None    Shift=    0.000
 RMSDP=6.39D-06 MaxDP=1.15D-04 DE= 1.06D-05 OVMax= 6.64D-05

 Cycle   8  Pass 1  IDiag  1:
 E= -248.284436378840     Delta-E=        0.000000003580 Rises=F Damp=F
 DIIS: error= 1.18D-05 at cycle   2 NSaved=   2.
 NSaved= 2 IEnMin= 1 EnMin= -248.284436382420     IErMin= 1 ErrMin= 6.20D-06
 ErrMax= 1.18D-05  0.00D+00 EMaxC= 1.00D-01 BMatC= 6.98D-09 BMatP= 3.70D-09
 IDIUse=1 WtCom= 1.00D+00 WtEn= 0.00D+00
 Coeff-Com:  0.593D+00 0.407D+00
 Coeff:      0.593D+00 0.407D+00
 Gap=     0.228 Goal=   None    Shift=    0.000
 RMSDP=1.12D-06 MaxDP=1.73D-05 DE= 3.58D-09 OVMax= 4.94D-05

 Cycle   9  Pass 1  IDiag  1:
 E= -248.284436386701     Delta-E=       -0.000000007861 Rises=F Damp=F
 DIIS: error= 2.94D-06 at cycle   3 NSaved=   3.
 NSaved= 3 IEnMin= 3 EnMin= -248.284436386701     IErMin= 3 ErrMin= 2.94D-06
 ErrMax= 2.94D-06  0.00D+00 EMaxC= 1.00D-01 BMatC= 4.66D-10 BMatP= 3.70D-09
 IDIUse=1 WtCom= 1.00D+00 WtEn= 0.00D+00
 Coeff-Com:  0.107D+00 0.211D+00 0.681D+00
 Coeff:      0.107D+00 0.211D+00 0.681D+00
 Gap=     0.228 Goal=   None    Shift=    0.000
 RMSDP=2.23D-07 MaxDP=6.03D-06 DE=-7.86D-09 OVMax= 9.78D-06

 Cycle  10  Pass 1  IDiag  1:
 E= -248.284436387106     Delta-E=       -0.000000000405 Rises=F Damp=F
 DIIS: error= 9.08D-07 at cycle   4 NSaved=   4.
 NSaved= 4 IEnMin= 4 EnMin= -248.284436387106     IErMin= 4 ErrMin= 9.08D-07
 ErrMax= 9.08D-07  0.00D+00 EMaxC= 1.00D-01 BMatC= 7.13D-11 BMatP= 4.66D-10
 IDIUse=1 WtCom= 1.00D+00 WtEn= 0.00D+00
 Coeff-Com:  0.122D-01 0.950D-01 0.385D+00 0.508D+00
 Coeff:      0.122D-01 0.950D-01 0.385D+00 0.508D+00
 Gap=     0.228 Goal=   None    Shift=    0.000
 RMSDP=8.34D-08 MaxDP=2.21D-06 DE=-4.05D-10 OVMax= 2.97D-06

 Cycle  11  Pass 1  IDiag  1:
 E= -248.284436387160     Delta-E=       -0.000000000055 Rises=F Damp=F
 DIIS: error= 2.11D-07 at cycle   5 NSaved=   5.
 NSaved= 5 IEnMin= 5 EnMin= -248.284436387160     IErMin= 5 ErrMin= 2.11D-07
 ErrMax= 2.11D-07  0.00D+00 EMaxC= 1.00D-01 BMatC= 3.89D-12 BMatP= 7.13D-11
 IDIUse=1 WtCom= 1.00D+00 WtEn= 0.00D+00
 Coeff-Com: -0.519D-02 0.211D-01 0.859D-01 0.237D+00 0.661D+00
 Coeff:     -0.519D-02 0.211D-01 0.859D-01 0.237D+00 0.661D+00
 Gap=     0.228 Goal=   None    Shift=    0.000
 RMSDP=2.45D-08 MaxDP=4.49D-07 DE=-5.45D-11 OVMax= 6.67D-07

 Cycle  12  Pass 1  IDiag  1:
 E= -248.284436387165     Delta-E=       -0.000000000005 Rises=F Damp=F
 DIIS: error= 2.94D-08 at cycle   6 NSaved=   6.
 NSaved= 6 IEnMin= 6 EnMin= -248.284436387165     IErMin= 6 ErrMin= 2.94D-08
 ErrMax= 2.94D-08  0.00D+00 EMaxC= 1.00D-01 BMatC= 7.01D-14 BMatP= 3.89D-12
 IDIUse=1 WtCom= 1.00D+00 WtEn= 0.00D+00
 Coeff-Com: -0.274D-02 0.697D-02 0.289D-01 0.911D-01 0.274D+00 0.601D+00
 Coeff:     -0.274D-02 0.697D-02 0.289D-01 0.911D-01 0.274D+00 0.601D+00
 Gap=     0.228 Goal=   None    Shift=    0.000
 RMSDP=3.73D-09 MaxDP=5.14D-08 DE=-5.34D-12 OVMax= 6.74D-08

 SCF Done:  E(RB3LYP) =  -248.284436387     A.U. after   12 cycles
            NFock= 12  Conv=0.37D-08     -V/T= 2.0097
 KE= 2.459024034752D+02 PE=-9.881949425793D+02 EE= 2.877051393759D+02
 Leave Link  502 at Sun Apr 14 13:03:40 2024, MaxMem=  1073741824 cpu:               5.5 elap:               2.8
 (Enter /usr/local/g16/l701.exe)
 ... and contract with generalized density number  0.
 Compute integral first derivatives.
 Leave Link  701 at Sun Apr 14 13:03:40 2024, MaxMem=  1073741824 cpu:               0.1 elap:               0.1
 (Enter /usr/local/g16/l702.exe)
 L702 exits ... SP integral derivatives will be done elsewhere.
 Leave Link  702 at Sun Apr 14 13:03:40 2024, MaxMem=  1073741824 cpu:               0.0 elap:               0.0
 (Enter /usr/local/g16/l703.exe)
 Integral derivatives from FoFJK, PRISM(SPDF).
 Compute integral first derivatives, UseDBF=F ICtDFT=           0.
 Calling FoFJK, ICntrl=      2127 FMM=F ISym2X=1 I1Cent= 0 IOpClX= 0 NMat=1 NMatS=1 NMatT=0.
 FoFJK:  IHMeth= 1 ICntrl=    2127 DoSepK=F KAlg= 0 I1Cent=           0 FoldK=F
 IRaf=         0 NMat=       1 IRICut=       1 DoRegI=T DoRafI=F ISym2E= 1 IDoP0=0 IntGTp=1.
 FoFCou: FMM=F IPFlag=           0 FMFlag=      100000 FMFlg1=         800
         NFxFlg=           0 DoJE=F BraDBF=F KetDBF=F FulRan=T
         wScrn=  0.000000 ICntrl=      2127 IOpCl=  0 I1Cent=           0 NGrid=           0
         NMat0=    1 NMatS0=      1 NMatT0=    0 NMatD0=    1 NMtDS0=    0 NMtDT0=    0
 Petite list used in FoFCou.
 Leave Link  703 at Sun Apr 14 13:03:41 2024, MaxMem=  1073741824 cpu:               2.0 elap:               1.0
 (Enter /usr/local/g16/l716.exe)
 Dipole        =-5.76452470D-17-8.88178420D-16-8.42595086D-01
 ***** Axes restored to original set *****
 -------------------------------------------------------------------
 Center     Atomic                   Forces (Hartrees/Bohr)
 Number     Number              X              Y              Z
 -------------------------------------------------------------------
      1        6           0.000583687   -0.000000000   -0.009936055
      2        7          -0.015803270    0.000000000    0.009538933
      3        6           0.009063680   -0.000000000    0.004112856
      4        6           0.003889557   -0.000000000    0.000295818
      5        6           0.002809009   -0.000000000   -0.001695532
      6        6           0.001550439   -0.000000000   -0.003579427
      7        1           0.000213134    0.000000000    0.001965905
      8        1          -0.001766133    0.000000000    0.001066047
      9        1          -0.001640193    0.000000000   -0.001104525
     10        1          -0.001829160    0.000000000   -0.004273668
     11        1           0.002929250   -0.000000000    0.003609648
 -------------------------------------------------------------------
 Cartesian Forces:  Max     0.015803270 RMS     0.004387863
 Leave Link  716 at Sun Apr 14 13:03:41 2024, MaxMem=  1073741824 cpu:               0.0 elap:               0.0
 (Enter /usr/local/g16/l103.exe)

 GradGradGradGradGradGradGradGradGradGradGradGradGradGradGradGradGradGrad
 Berny optimization.
 Using GEDIIS/GDIIS optimizer.
 FormGI is forming the generalized inverse of G from B-inverse, IUseBI=4.
 Internal  Forces:  Max     0.008360269 RMS     0.002587724
 Search for a local minimum.
 Step number   2 out of a maximum of   57
 All quantities printed in internal units (Hartrees-Bohrs-Radians)
 RMS Force = .25877D-02 SwitMx=.10000D-02 MixMth= 1
 Mixed Optimization -- RFO/linear search
 Update second derivatives using D2CorX and points    1    2
 DE= -2.38D-02 DEPred=-2.54D-02 R= 9.38D-01
 TightC=F SS=  1.41D+00  RLast= 2.66D-01 DXNew= 5.0454D-01 7.9746D-01
 Trust test= 9.38D-01 RLast= 2.66D-01 DXMaxT set to 5.05D-01
 ITU=  1  0
 Use linear search instead of GDIIS.
     Eigenvalues ---    0.02850   0.02851   0.02855   0.02859   0.02921
     Eigenvalues ---    0.03020   0.03067   0.03327   0.15994   0.16000
     Eigenvalues ---    0.16000   0.16000   0.16063   0.22000   0.22000
     Eigenvalues ---    0.23508   0.32876   0.33224   0.33279   0.33283
     Eigenvalues ---    0.33322   0.50808   0.54398   0.56758   0.58374
     Eigenvalues ---    0.71263   0.75998
 RFO step:  Lambda=-7.72306775D-04 EMin= 2.84964438D-02
 Quartic linear search produced a step of  0.06381.
 Iteration  1 RMS(Cart)=  0.00828034 RMS(Int)=  0.00006344
 Iteration  2 RMS(Cart)=  0.00008447 RMS(Int)=  0.00002312
 Iteration  3 RMS(Cart)=  0.00000000 RMS(Int)=  0.00002312
 ITry= 1 IFail=0 DXMaxC= 3.25D-02 DCOld= 1.00D+10 DXMaxT= 5.05D-01 DXLimC= 3.00D+00 Rises=F
 ClnCor:  largest displacement from symmetrization is 7.10D-10 for atom     8.
 Variable       Old X    -DE/DX   Delta X   Delta X   Delta X     New X
                                 (Linear)    (Quad)   (Total)
    R1        2.50898   0.00836   0.00736   0.00727   0.01467   2.52364
    R2        2.63582   0.00298   0.00625   0.00171   0.00796   2.64378
    R3        2.07076  -0.00424  -0.00101  -0.01297  -0.01398   2.05678
    R4        2.50898   0.00836   0.00736   0.00727   0.01467   2.52364
    R5        2.63582   0.00298   0.00625   0.00171   0.00796   2.64378
    R6        2.07076  -0.00424  -0.00101  -0.01297  -0.01398   2.05678
    R7        2.63524   0.00015   0.00636  -0.00454   0.00179   2.63703
    R8        2.05832  -0.00197  -0.00174  -0.00531  -0.00706   2.05127
    R9        2.63524   0.00015   0.00636  -0.00454   0.00179   2.63703
   R10        2.05992  -0.00206  -0.00164  -0.00566  -0.00729   2.05263
   R11        2.05832  -0.00197  -0.00174  -0.00531  -0.00706   2.05127
    A1        2.14455   0.00310  -0.00116   0.01668   0.01555   2.16010
    A2        2.04687  -0.00352   0.00121  -0.02167  -0.02047   2.02640
    A3        2.09176   0.00043  -0.00005   0.00498   0.00492   2.09668
    A4        2.07563  -0.00789   0.00129  -0.02984  -0.02846   2.04716
    A5        2.14455   0.00310  -0.00116   0.01668   0.01555   2.16010
    A6        2.04687  -0.00352   0.00121  -0.02167  -0.02047   2.02640
    A7        2.09176   0.00043  -0.00005   0.00498   0.00492   2.09668
    A8        2.06400   0.00091   0.00005   0.00132   0.00133   2.06533
    A9        2.10299  -0.00034  -0.00049   0.00028  -0.00019   2.10280
   A10        2.11620  -0.00057   0.00045  -0.00160  -0.00114   2.11506
   A11        2.07365  -0.00011   0.00093  -0.00616  -0.00530   2.06836
   A12        2.10477   0.00005  -0.00047   0.00308   0.00265   2.10741
   A13        2.10477   0.00005  -0.00047   0.00308   0.00265   2.10741
   A14        2.06400   0.00091   0.00005   0.00132   0.00133   2.06533
   A15        2.10299  -0.00034  -0.00049   0.00028  -0.00019   2.10280
   A16        2.11620  -0.00057   0.00045  -0.00160  -0.00114   2.11506
    D1       -0.00000   0.00000   0.00000   0.00000   0.00000   0.00000
    D2        3.14159  -0.00000   0.00000  -0.00000   0.00000   3.14159
    D3        0.00000  -0.00000   0.00000  -0.00000   0.00000   0.00000
    D4        3.14159  -0.00000   0.00000  -0.00000   0.00000   3.14159
    D5        3.14159   0.00000   0.00000   0.00000   0.00000   3.14159
    D6       -0.00000   0.00000   0.00000   0.00000   0.00000   0.00000
    D7        0.00000  -0.00000   0.00000  -0.00000   0.00000   0.00000
    D8        3.14159  -0.00000   0.00000  -0.00000   0.00000   3.14159
    D9       -0.00000   0.00000   0.00000   0.00000   0.00000   0.00000
   D10        3.14159   0.00000   0.00000   0.00000   0.00000   3.14159
   D11        3.14159  -0.00000   0.00000  -0.00000   0.00000   3.14159
   D12        0.00000  -0.00000   0.00000  -0.00000   0.00000   0.00000
   D13        0.00000  -0.00000   0.00000  -0.00000   0.00000   0.00000
   D14        3.14159   0.00000   0.00000   0.00000   0.00000   3.14159
   D15        3.14159   0.00000   0.00000   0.00000   0.00000   3.14159
   D16       -0.00000   0.00000   0.00000   0.00000   0.00000   0.00000
   D17       -0.00000   0.00000   0.00000   0.00000   0.00000   0.00000
   D18        3.14159  -0.00000   0.00000  -0.00000   0.00000   3.14159
   D19        3.14159  -0.00000   0.00000  -0.00000   0.00000   3.14159
   D20        0.00000  -0.00000   0.00000  -0.00000   0.00000   0.00000
         Item               Value     Threshold  Converged?
 Maximum Force            0.008360     0.000450     NO 
 RMS     Force            0.002588     0.000300     NO 
 Maximum Displacement     0.032459     0.001800     NO 
 RMS     Displacement     0.008326     0.001200     NO 
 Predicted change in Energy=-4.518399D-04
 Lowest energy point so far.  Saving SCF results.
 GradGradGradGradGradGradGradGradGradGradGradGradGradGradGradGradGradGrad

 Leave Link  103 at Sun Apr 14 13:03:41 2024, MaxMem=  1073741824 cpu:               0.0 elap:               0.0
 (Enter /usr/local/g16/l202.exe)
                          Input orientation:                          
 ---------------------------------------------------------------------
 Center     Atomic      Atomic             Coordinates (Angstroms)
 Number     Number       Type             X           Y           Z
 ---------------------------------------------------------------------
      1          6           0       -0.054432    0.000000   -0.032621
      2          7           0       -0.059973    0.000000    1.302821
      3          6           0        1.124250   -0.000000    1.920116
      4          6           0        2.351358   -0.000000    1.248187
      5          6           0        2.342361   -0.000000   -0.147240
      6          6           0        1.111835   -0.000000   -0.805346
      7          1           0        1.054170   -0.000000   -1.889298
      8          1           0        3.272290   -0.000000   -0.708549
      9          1           0        3.283606   -0.000000    1.804237
     10          1           0        1.097142   -0.000000    3.008179
     11          1           0       -1.029814    0.000000   -0.515575
 ---------------------------------------------------------------------
                    Distance matrix (angstroms):
                    1          2          3          4          5
     1  C    0.000000
     2  N    1.335454   0.000000
     3  C    2.280894   1.335454   0.000000
     4  C    2.725491   2.411950   1.399029   0.000000
     5  C    2.399532   2.806044   2.399532   1.395456   0.000000
     6  C    1.399029   2.411950   2.725491   2.398628   1.395456
     7  H    2.162463   3.380967   3.810059   3.395072   2.166611
     8  H    3.394696   3.892247   3.394696   2.162622   1.086203
     9  H    3.810059   3.380967   2.162463   1.085485   2.166611
    10  H    3.251552   2.060863   1.088400   2.161164   3.392231
    11  H    1.088400   2.060863   3.251552   3.813553   3.392231
                    6          7          8          9         10
     6  C    0.000000
     7  H    1.085485   0.000000
     8  H    2.162622   2.512812   0.000000
     9  H    3.395072   4.314230   2.512812   0.000000
    10  H    3.813553   4.897665   4.306430   2.496017   0.000000
    11  H    2.161164   2.496017   4.306430   4.897665   4.115918
                   11
    11  H    0.000000
 Stoichiometry    C5H5N
 Framework group  C2V[C2(HCN),SGV(C4H4)]
 Deg. of freedom    10
 Full point group                 C2V     NOp   4
 RotChk:  IX=0 Diff= 4.90D-14
 Largest Abelian subgroup         C2V     NOp   4
 Largest concise Abelian subgroup C2      NOp   2
                         Standard orientation:                         
 ---------------------------------------------------------------------
 Center     Atomic      Atomic             Coordinates (Angstroms)
 Number     Number       Type             X           Y           Z
 ---------------------------------------------------------------------
      1          6           0       -0.000000    1.140447    0.724292
      2          7           0       -0.000000   -0.000000    1.419143
      3          6           0       -0.000000   -1.140447    0.724292
      4          6           0        0.000000   -1.199314   -0.673498
      5          6           0        0.000000    0.000000   -1.386901
      6          6           0        0.000000    1.199314   -0.673498
      7          1           0        0.000000    2.157115   -1.184276
      8          1           0        0.000000    0.000000   -2.473104
      9          1           0       -0.000000   -2.157115   -1.184276
     10          1           0       -0.000000   -2.057959    1.309771
     11          1           0        0.000000    2.057959    1.309771
 ---------------------------------------------------------------------
 Rotational constants (GHZ):           6.0415072           5.7991146           2.9589149
 Leave Link  202 at Sun Apr 14 13:03:41 2024, MaxMem=  1073741824 cpu:               0.0 elap:               0.0
 (Enter /usr/local/g16/l301.exe)
 Standard basis: 6-31G(d) (6D, 7F)
 Ernie: Thresh=  0.10000D-02 Tol=  0.10000D-05 Strict=F.
 There are    44 symmetry adapted cartesian basis functions of A1  symmetry.
 There are    10 symmetry adapted cartesian basis functions of A2  symmetry.
 There are    14 symmetry adapted cartesian basis functions of B1  symmetry.
 There are    32 symmetry adapted cartesian basis functions of B2  symmetry.
 There are    44 symmetry adapted basis functions of A1  symmetry.
 There are    10 symmetry adapted basis functions of A2  symmetry.
 There are    14 symmetry adapted basis functions of B1  symmetry.
 There are    32 symmetry adapted basis functions of B2  symmetry.
   100 basis functions,   188 primitive gaussians,   100 cartesian basis functions
    21 alpha electrons       21 beta electrons
       nuclear repulsion energy       205.8678653282 Hartrees.
 IExCor=  402 DFT=T Ex+Corr=B3LYP ExCW=0 ScaHFX=  0.200000
 ScaDFX=  0.800000  0.720000  1.000000  0.810000 ScalE2=  1.000000  1.000000
 IRadAn=      5 IRanWt=     -1 IRanGd=            0 ICorTp=0 IEmpDi=  4
 NAtoms=   11 NActive=   11 NUniq=    7 SFac= 2.47D+00 NAtFMM=   60 NAOKFM=F Big=F
 Integral buffers will be    131072 words long.
 Raffenetti 2 integral format.
 Two-electron integral symmetry is turned on.
 Leave Link  301 at Sun Apr 14 13:03:41 2024, MaxMem=  1073741824 cpu:               0.1 elap:               0.0
 (Enter /usr/local/g16/l302.exe)
 NPDir=0 NMtPBC=     1 NCelOv=     1 NCel=       1 NClECP=     1 NCelD=      1
         NCelK=      1 NCelE2=     1 NClLst=     1 CellRange=     0.0.
 One-electron integrals computed using PRISM.
 One-electron integral symmetry used in STVInt
 NBasis=   100 RedAO= T EigKep=  8.80D-04  NBF=    44    10    14    32
 NBsUse=   100 1.00D-06 EigRej= -1.00D+00 NBFU=    44    10    14    32
 Precomputing XC quadrature grid using
 IXCGrd= 4 IRadAn=           5 IRanWt=          -1 IRanGd=           0 AccXCQ= 0.00D+00.
 Generated NRdTot=       0 NPtTot=           0 NUsed=           0 NTot=          32
 NSgBfM=   100   100   100   100   100 MxSgAt=    11 MxSgA2=    11.
 Leave Link  302 at Sun Apr 14 13:03:41 2024, MaxMem=  1073741824 cpu:               0.2 elap:               0.1
 (Enter /usr/local/g16/l303.exe)
 DipDrv:  MaxL=1.
 Leave Link  303 at Sun Apr 14 13:03:41 2024, MaxMem=  1073741824 cpu:               0.0 elap:               0.0
 (Enter /usr/local/g16/l401.exe)
 Initial guess from the checkpoint file:  "pyridine-opt.chk"
 B after Tr=     0.000000   -0.000000   -0.000000
         Rot=    1.000000   -0.000000   -0.000000    0.000000 Ang=   0.00 deg.
 Guess basis will be translated and rotated to current coordinates.
 JPrj=2 DoOrth=T DoCkMO=T.
 Initial guess orbital symmetries:
       Occupied  (A1) (B2) (A1) (A1) (B2) (A1) (A1) (A1) (B2) (B2)
                 (A1) (A1) (B2) (A1) (B2) (A1) (B1) (B2) (B1) (A2)
                 (A1)
       Virtual   (B1) (A2) (A1) (B2) (B1) (A1) (A1) (B2) (A1) (B2)
                 (A1) (B2) (A1) (B2) (B1) (B2) (A1) (A2) (A1) (A1)
                 (B1) (B2) (A1) (A2) (B2) (B1) (B2) (A1) (A1) (B2)
                 (B1) (A1) (B2) (A1) (A1) (B2) (B2) (A1) (A1) (B2)
                 (A2) (A1) (B1) (B2) (A2) (B1) (B1) (A2) (A1) (A1)
                 (A1) (B2) (A1) (B2) (A1) (B2) (A2) (B2) (B1) (A1)
                 (B1) (A2) (B1) (A1) (B2) (A1) (A1) (A2) (B2) (A1)
                 (B2) (B2) (A1) (A1) (B2) (A1) (A1) (B2) (A1)
 The electronic state of the initial guess is 1-A1.
 Generating alternative initial guess.
 ExpMin= 1.61D-01 ExpMax= 4.17D+03 ExpMxC= 6.27D+02 IAcc=3 IRadAn=         5 AccDes= 0.00D+00
 Harris functional with IExCor=  402 and IRadAn=       5 diagonalized for initial guess.
 HarFok:  IExCor=  402 AccDes= 0.00D+00 IRadAn=         5 IDoV= 1 UseB2=F ITyADJ=14
 ICtDFT=  3500011 ScaDFX=  1.000000  1.000000  1.000000  1.000000
 FoFCou: FMM=F IPFlag=           0 FMFlag=      100000 FMFlg1=           0
         NFxFlg=           0 DoJE=T BraDBF=F KetDBF=T FulRan=T
         wScrn=  0.000000 ICntrl=       500 IOpCl=  0 I1Cent=   200000004 NGrid=           0
         NMat0=    1 NMatS0=      1 NMatT0=    0 NMatD0=    1 NMtDS0=    0 NMtDT0=    0
 Petite list used in FoFCou.
 Harris En= -248.280240647688    
 Leave Link  401 at Sun Apr 14 13:03:42 2024, MaxMem=  1073741824 cpu:               0.6 elap:               0.3
 (Enter /usr/local/g16/l502.exe)
 Keep R1 ints in memory in symmetry-blocked form, NReq=16208911.
 FoFCou: FMM=F IPFlag=           0 FMFlag=           0 FMFlg1=           0
         NFxFlg=           0 DoJE=F BraDBF=F KetDBF=F FulRan=T
         wScrn=  0.000000 ICntrl=       600 IOpCl=  0 I1Cent=           0 NGrid=           0
         NMat0=    1 NMatS0=   5050 NMatT0=    0 NMatD0=    1 NMtDS0=    0 NMtDT0=    0
 Petite list used in FoFCou.
 Closed shell SCF:
 Using DIIS extrapolation, IDIIS=  1040.
 NGot=  1073741824 LenX=  1070265687 LenY=  1070255246
 Requested convergence on RMS density matrix=1.00D-08 within 128 cycles.
 Requested convergence on MAX density matrix=1.00D-06.
 Requested convergence on             energy=1.00D-06.
 No special actions if energy rises.
 Integral accuracy reduced to 1.0D-05 until final iterations.

 Cycle   1  Pass 0  IDiag  1:
 E= -248.284695491242    
 DIIS: error= 8.98D-04 at cycle   1 NSaved=   1.
 NSaved= 1 IEnMin= 1 EnMin= -248.284695491242     IErMin= 1 ErrMin= 8.98D-04
 ErrMax= 8.98D-04  0.00D+00 EMaxC= 1.00D-01 BMatC= 1.42D-04 BMatP= 1.42D-04
 IDIUse=3 WtCom= 9.91D-01 WtEn= 8.98D-03
 Coeff-Com:  0.100D+01
 Coeff-En:   0.100D+01
 Coeff:      0.100D+01
 Gap=     0.230 Goal=   None    Shift=    0.000
 RMSDP=3.09D-04 MaxDP=6.34D-03              OVMax= 7.62D-03

 Cycle   2  Pass 0  IDiag  1:
 E= -248.284910814405     Delta-E=       -0.000215323162 Rises=F Damp=F
 DIIS: error= 5.55D-04 at cycle   2 NSaved=   2.
 NSaved= 2 IEnMin= 2 EnMin= -248.284910814405     IErMin= 2 ErrMin= 5.55D-04
 ErrMax= 5.55D-04  0.00D+00 EMaxC= 1.00D-01 BMatC= 2.37D-05 BMatP= 1.42D-04
 IDIUse=3 WtCom= 9.94D-01 WtEn= 5.55D-03
 Coeff-Com:  0.185D+00 0.815D+00
 Coeff-En:   0.000D+00 0.100D+01
 Coeff:      0.184D+00 0.816D+00
 Gap=     0.231 Goal=   None    Shift=    0.000
 RMSDP=1.04D-04 MaxDP=2.68D-03 DE=-2.15D-04 OVMax= 4.54D-03

 Cycle   3  Pass 0  IDiag  1:
 E= -248.284895472329     Delta-E=        0.000015342076 Rises=F Damp=F
 DIIS: error= 8.21D-04 at cycle   3 NSaved=   3.
 NSaved= 3 IEnMin= 2 EnMin= -248.284910814405     IErMin= 2 ErrMin= 5.55D-04
 ErrMax= 8.21D-04  0.00D+00 EMaxC= 1.00D-01 BMatC= 3.79D-05 BMatP= 2.37D-05
 IDIUse=3 WtCom= 2.59D-01 WtEn= 7.41D-01
 Coeff-Com: -0.928D-02 0.563D+00 0.446D+00
 Coeff-En:   0.000D+00 0.610D+00 0.390D+00
 Coeff:     -0.240D-02 0.598D+00 0.404D+00
 Gap=     0.230 Goal=   None    Shift=    0.000
 RMSDP=6.09D-05 MaxDP=1.48D-03 DE= 1.53D-05 OVMax= 2.72D-03

 Cycle   4  Pass 0  IDiag  1:
[...]
        18        -0.0000      0.0000     -0.0000     -0.0000       90.00
        19         0.0000      0.0000     -0.0000      0.0000       90.00
        20        -0.0000     -0.0000     -0.0000     -0.0000       90.00
 1/2[<0|r|b>*<b|rxdel|0> + (<0|rxdel|b>*<b|r|0>)*]
 Rotatory Strengths (R) in cgs (10**-40 erg-esu-cm/Gauss)
       state          XX          YY          ZZ     R(length)
         1        -0.0000     -0.0000      0.0000     -0.0000
         2         0.0000     -0.0000      0.0000      0.0000
         3         0.0000      0.0000     -0.0000      0.0000
         4         0.0000      0.0000     -0.0000      0.0000
         5         0.0000     -0.0000     -0.0000     -0.0000
         6        -0.0000      0.0000     -0.0000     -0.0000
         7         0.0000      0.0000     -0.0000     -0.0000
         8         0.0000     -0.0000      0.0000     -0.0000
         9        -0.0000     -0.0000     -0.0000     -0.0000
        10        -0.0000     -0.0000      0.0000      0.0000
        11        -0.0000      0.0000      0.0000      0.0000
        12        -0.0000      0.0000     -0.0000      0.0000
        13        -0.0000     -0.0000     -0.0000     -0.0000
        14         0.0000     -0.0000      0.0000      0.0000
        15        -0.0000      0.0000     -0.0000     -0.0000
        16        -0.0000      0.0000     -0.0000      0.0000
        17         0.0000     -0.0000     -0.0000     -0.0000
        18         0.0000      0.0000      0.0000      0.0000
        19         0.0000     -0.0000      0.0000      0.0000
        20         0.0000     -0.0000     -0.0000     -0.0000
  1/2[<0|del|b>*<b|r|0> + (<0|r|b>*<b|del|0>)*] (Au)
       state          X           Y           Z        Dip. S.   Osc.(frdel)
         1        -0.0000     -0.0000     -0.0000      0.0000      0.0000
         2         0.0000     -0.0000     -0.0000      0.0000      0.0000
         3        -0.0000     -0.0000     -0.0000      0.0000      0.0000
         4        -0.0068     -0.0000     -0.0000      0.0068      0.0045
         5        -0.0000     -0.0000      0.0000      0.0000      0.0000
         6         0.0000     -0.0000     -0.0000      0.0000      0.0000
         7        -0.0000      0.0000      0.0000     -0.0000     -0.0000
         8        -0.0000     -0.0421     -0.0000      0.0421      0.0281
         9        -0.0000     -0.0000     -0.0000      0.0000      0.0000
        10         0.0000     -0.0000     -0.0235      0.0235      0.0156
        11        -0.0000     -0.6503     -0.0000      0.6503      0.4335
        12        -0.0000     -0.0000     -0.0000      0.0000      0.0000
        13        -0.0000     -0.0000     -0.0000      0.0000      0.0000
        14        -0.0000     -0.0000     -0.6784      0.6784      0.4523
        15         0.0000     -0.0000     -0.0000      0.0000      0.0000
        16        -0.0000     -0.0000     -0.0000      0.0000      0.0000
        17        -0.0000     -0.0000     -0.0000      0.0000      0.0000
        18        -0.0038      0.0000     -0.0000      0.0038      0.0025
        19         0.0000     -0.0000     -0.0000      0.0000      0.0000
        20        -0.0000      0.0000     -0.0212      0.0212      0.0142

 Excitation energies and oscillator strengths:
 
 Excited State   1:      Triplet-A1     3.9253 eV  315.86 nm  f=0.0000  <S**2>=2.000
      17 -> 26        -0.11068
      19 -> 22         0.43268
      20 -> 23         0.56358
      20 <- 23         0.10004
 This state for optimization and/or second-order correction.
 Total Energy, E(TD-HF/TD-DFT) =  -248.140707285    
 Copying the excited state density for this state as the 1-particle RhoCI density.
 
 Excited State   2:      Triplet-B1     4.1400 eV  299.48 nm  f=0.0000  <S**2>=2.000
      21 -> 22         0.69845
      21 -> 26         0.10572
 
 Excited State   3:      Triplet-B2     4.6047 eV  269.26 nm  f=0.0000  <S**2>=2.000
      19 -> 23         0.12370
      20 -> 22         0.69687
 
 Excited State   4:      Singlet-B1     4.9134 eV  252.34 nm  f=0.0043  <S**2>=0.000
      21 -> 22         0.70602
 
 Excited State   5:      Triplet-A1     4.9391 eV  251.03 nm  f=0.0000  <S**2>=2.000
      19 -> 22         0.56134
      20 -> 23        -0.43115
 
 Excited State   6:      Triplet-A2     5.0528 eV  245.38 nm  f=0.0000  <S**2>=2.000
      21 -> 23         0.70613
 
 Excited State   7:      Singlet-A2     5.1933 eV  238.74 nm  f=0.0000  <S**2>=0.000
      21 -> 23         0.70661
 
 Excited State   8:      Singlet-B2     5.6382 eV  219.90 nm  f=0.0277  <S**2>=0.000
      19 -> 23        -0.36973
      20 -> 22         0.60198
 
 Excited State   9:      Triplet-B2     5.7215 eV  216.70 nm  f=0.0000  <S**2>=2.000
      19 -> 23         0.69475
      20 -> 22        -0.12260
 
 Excited State  10:      Singlet-A1     6.4953 eV  190.88 nm  f=0.0156  <S**2>=0.000
      19 -> 22         0.42112
      20 -> 23         0.56472
 
 Excited State  11:      Singlet-B2     7.5603 eV  163.99 nm  f=0.4355  <S**2>=0.000
      19 -> 23         0.59625
      20 -> 22         0.36433
 
 Excited State  12:      Triplet-A2     7.5658 eV  163.87 nm  f=0.0000  <S**2>=2.000
      18 -> 22         0.70269
 
 Excited State  13:      Triplet-A1     7.5835 eV  163.49 nm  f=0.0000  <S**2>=2.000
      17 -> 22         0.64801
      19 -> 26        -0.28013
 
 Excited State  14:      Singlet-A1     7.6119 eV  162.88 nm  f=0.4549  <S**2>=0.000
      19 -> 22         0.55475
      20 -> 23        -0.41708
 
 Excited State  15:      Singlet-A2     7.8451 eV  158.04 nm  f=0.0000  <S**2>=0.000
      18 -> 22         0.70497
 
 Excited State  16:      Triplet-B2     7.8612 eV  157.72 nm  f=0.0000  <S**2>=2.000
      17 -> 23         0.57451
      20 -> 26        -0.40816
 
 Excited State  17:      Triplet-B1     7.9147 eV  156.65 nm  f=0.0000  <S**2>=2.000
      18 -> 23         0.70153
 
 Excited State  18:      Singlet-B1     8.2600 eV  150.10 nm  f=0.0050  <S**2>=0.000
      18 -> 23         0.70491
 
 Excited State  19:      Singlet-A2     8.5169 eV  145.57 nm  f=0.0000  <S**2>=0.000
      20 -> 24         0.70421
 
 Excited State  20:      Singlet-A1     8.5383 eV  145.21 nm  f=0.0146  <S**2>=0.000
      17 -> 22        -0.13872
      21 -> 24         0.68450
 SavETr:  write IOETrn=   770 NScale= 10 NData=  16 NLR=1 NState=   20 LETran=     370.
 Leave Link  914 at Sun Apr 14 13:06:09 2024, MaxMem=  1073741824 cpu:             193.6 elap:              96.8
 (Enter /usr/local/g16/l601.exe)
 Copying SCF densities to generalized density rwf, IOpCl= 0 IROHF=0.

 **********************************************************************

            Population analysis using the SCF Density.

 **********************************************************************

 Orbital symmetries:
       Occupied  (A1) (B2) (A1) (A1) (B2) (A1) (A1) (A1) (B2) (B2)
                 (A1) (A1) (B2) (A1) (B2) (A1) (B1) (B2) (B1) (A2)
                 (A1)
       Virtual   (B1) (A2) (A1) (B2) (B1) (A1) (A1) (B2) (A1) (B2)
                 (A1) (B2) (A1) (B2) (B1) (B2) (A1) (A2) (A1) (A1)
                 (B1) (B2) (A1) (A2) (B2) (B1) (B2) (A1) (A1) (B2)
                 (B1) (A1) (B2) (A1) (A1) (B2) (B2) (A1) (A1) (B2)
                 (A2) (A1) (B1) (B2) (A2) (B1) (B1) (A2) (A1) (A1)
                 (A1) (B2) (A1) (B2) (A1) (A2) (B2) (B2) (B1) (A1)
                 (B1) (A2) (B1) (A1) (B2) (A1) (A1) (A2) (B2) (A1)
                 (B2) (B2) (A1) (A1) (B2) (A1) (A1) (B2) (A1)
 The electronic state is 1-A1.
 Alpha  occ. eigenvalues --  -14.32857 -10.22217 -10.22216 -10.21021 -10.20015
 Alpha  occ. eigenvalues --  -10.20014  -0.93786  -0.80271  -0.75964  -0.62816
 Alpha  occ. eigenvalues --   -0.62675  -0.52768  -0.47666  -0.47152  -0.42854
 Alpha  occ. eigenvalues --   -0.40348  -0.39442  -0.36389  -0.28592  -0.26138
 Alpha  occ. eigenvalues --   -0.25259
 Alpha virt. eigenvalues --   -0.02245  -0.00946   0.09288   0.13761   0.14681
 Alpha virt. eigenvalues --    0.15441   0.17521   0.17653   0.24108   0.29477
 Alpha virt. eigenvalues --    0.32026   0.32096   0.45378   0.45954   0.51546
 Alpha virt. eigenvalues --    0.53569   0.58311   0.58606   0.59275   0.59289
 Alpha virt. eigenvalues --    0.59697   0.60303   0.64321   0.65545   0.67278
 Alpha virt. eigenvalues --    0.68678   0.82239   0.82555   0.84428   0.85015
 Alpha virt. eigenvalues --    0.86115   0.87744   0.91932   0.92598   0.96481
 Alpha virt. eigenvalues --    1.03740   1.06730   1.10851   1.15868   1.20972
 Alpha virt. eigenvalues --    1.25031   1.36954   1.37905   1.46068   1.47501
 Alpha virt. eigenvalues --    1.47940   1.51415   1.52435   1.69932   1.77663
 Alpha virt. eigenvalues --    1.81151   1.82135   1.91697   1.96423   2.05097
 Alpha virt. eigenvalues --    2.12749   2.13128   2.16896   2.17885   2.19126
 Alpha virt. eigenvalues --    2.29296   2.31787   2.38138   2.51791   2.54158
 Alpha virt. eigenvalues --    2.64300   2.65725   2.69049   2.71146   2.76948
 Alpha virt. eigenvalues --    2.77836   3.04209   3.36866   4.03602   4.09678
 Alpha virt. eigenvalues --    4.12237   4.22810   4.31694   4.58198
          Condensed to atoms (all electrons):
               1          2          3          4          5          6
     1  C    4.779342   0.471687  -0.073966  -0.040242  -0.029611   0.501740
     2  N    0.471687   6.663537   0.471687  -0.028672  -0.046297  -0.028672
     3  C   -0.073966   0.471687   4.779342   0.501740  -0.029611  -0.040242
     4  C   -0.040242  -0.028672   0.501740   4.942332   0.543265  -0.028797
     5  C   -0.029611  -0.046297  -0.029611   0.543265   4.840404   0.543265
     6  C    0.501740  -0.028672  -0.040242  -0.028797   0.543265   4.942332
     7  H   -0.035851   0.004773   0.000290   0.005401  -0.044450   0.351348
     8  H    0.004716  -0.000138   0.004716  -0.044748   0.364185  -0.044748
     9  H    0.000290   0.004773  -0.035851   0.351348  -0.044450   0.005401
    10  H    0.005435  -0.053478   0.377639  -0.065547   0.003765   0.000404
    11  H    0.377639  -0.053478   0.005435   0.000404   0.003765  -0.065547
               7          8          9         10         11
     1  C   -0.035851   0.004716   0.000290   0.005435   0.377639
     2  N    0.004773  -0.000138   0.004773  -0.053478  -0.053478
     3  C    0.000290   0.004716  -0.035851   0.377639   0.005435
     4  C    0.005401  -0.044748   0.351348  -0.065547   0.000404
     5  C   -0.044450   0.364185  -0.044450   0.003765   0.003765
     6  C    0.351348  -0.044748   0.005401   0.000404  -0.065547
     7  H    0.588273  -0.005875  -0.000112   0.000025  -0.002083
     8  H   -0.005875   0.583762  -0.005875  -0.000174  -0.000174
     9  H   -0.000112  -0.005875   0.588273  -0.002083   0.000025
    10  H    0.000025  -0.000174  -0.002083   0.591991  -0.000184
    11  H   -0.002083  -0.000174   0.000025  -0.000184   0.591991
 Mulliken charges:
               1
     1  C    0.038821
     2  N   -0.405723
     3  C    0.038821
     4  C   -0.136485
     5  C   -0.104231
     6  C   -0.136485
     7  H    0.138260
     8  H    0.144352
     9  H    0.138260
    10  H    0.142205
    11  H    0.142205
 Sum of Mulliken charges =   0.00000
 Mulliken charges with hydrogens summed into heavy atoms:
               1
     1  C    0.181026
     2  N   -0.405723
     3  C    0.181026
     4  C    0.001775
     5  C    0.040121
     6  C    0.001775
 Electronic spatial extent (au):  <R**2>=            434.0734
 Charge=              0.0000 electrons
 Dipole moment (field-independent basis, Debye):
    X=             -0.0000    Y=             -0.0000    Z=             -2.1921  Tot=              2.1921
 Quadrupole moment (field-independent basis, Debye-Ang):
   XX=            -36.8585   YY=            -29.1202   ZZ=            -35.7253
   XY=              0.0000   XZ=              0.0000   YZ=              0.0000
 Traceless Quadrupole moment (field-independent basis, Debye-Ang):
   XX=             -2.9572   YY=              4.7812   ZZ=             -1.8240
   XY=              0.0000   XZ=              0.0000   YZ=              0.0000
 Octapole moment (field-independent basis, Debye-Ang**2):
  XXX=             -0.0000  YYY=             -0.0000  ZZZ=            -13.8526  XYY=             -0.0000
  XXY=             -0.0000  XXZ=              1.3393  XZZ=             -0.0000  YZZ=             -0.0000
  YYZ=              1.8174  XYZ=              0.0000
 Hexadecapole moment (field-independent basis, Debye-Ang**3):
 XXXX=            -36.7383 YYYY=           -250.0589 ZZZZ=           -277.9534 XXXY=             -0.0000
 XXXZ=              0.0000 YYYX=             -0.0000 YYYZ=              0.0000 ZZZX=              0.0000
 ZZZY=              0.0000 XXYY=            -56.1268 XXZZ=            -54.3525 YYZZ=            -80.2159
 XXYZ=             -0.0000 YYXZ=              0.0000 ZZXY=             -0.0000
 N-N= 2.058416735617D+02 E-N=-9.872518811081D+02  KE= 2.458762659416D+02
 Symmetry A1   KE= 1.604886466419D+02
 Symmetry A2   KE= 2.280424374314D+00
 Symmetry B1   KE= 4.680815066887D+00
 Symmetry B2   KE= 7.842637985843D+01
 Leave Link  601 at Sun Apr 14 13:06:09 2024, MaxMem=  1073741824 cpu:               0.0 elap:               0.0
 (Enter /usr/local/g16/l9999.exe)
 Electronic transition elements 
                 1             2             3             4             5 
      1  -0.248141D+03 -0.248133D+03 -0.248116D+03 -0.248104D+03 -0.248103D+03
      2   0.000000D+00  0.000000D+00  0.000000D+00  0.000000D+00  0.000000D+00
      3   0.000000D+00  0.000000D+00  0.000000D+00 -0.188960D+00  0.000000D+00
      4   0.000000D+00  0.000000D+00  0.000000D+00  0.000000D+00  0.000000D+00
      5   0.000000D+00  0.000000D+00  0.000000D+00  0.000000D+00  0.000000D+00
      6   0.000000D+00  0.000000D+00  0.000000D+00  0.357237D-01  0.000000D+00
      7   0.000000D+00  0.000000D+00  0.000000D+00  0.000000D+00  0.000000D+00
      8   0.000000D+00  0.000000D+00  0.000000D+00 -0.441166D+00  0.000000D+00
      9   0.000000D+00  0.000000D+00  0.000000D+00  0.000000D+00  0.000000D+00
     10   0.000000D+00  0.000000D+00  0.000000D+00 -0.730885D+00  0.000000D+00
     11   0.000000D+00  0.000000D+00  0.000000D+00  0.000000D+00  0.000000D+00
     12   0.000000D+00  0.000000D+00  0.000000D+00  0.000000D+00  0.000000D+00
     13   0.000000D+00  0.000000D+00  0.000000D+00  0.000000D+00  0.000000D+00
     14   0.000000D+00  0.000000D+00  0.000000D+00 -0.156506D+00  0.000000D+00
     15   0.000000D+00  0.000000D+00  0.000000D+00  0.000000D+00  0.000000D+00
     16   0.000000D+00  0.000000D+00  0.000000D+00  0.944677D-01  0.000000D+00
                 6             7             8             9            10 
      1  -0.248099D+03 -0.248094D+03 -0.248078D+03 -0.248075D+03 -0.248046D+03
      2   0.000000D+00  0.000000D+00 -0.231375D+00  0.000000D+00  0.267831D+00
      3   0.000000D+00  0.000000D+00  0.000000D+00  0.000000D+00  0.000000D+00
      4   0.000000D+00  0.000000D+00 -0.383322D+00  0.000000D+00 -0.161664D+00
      5   0.000000D+00  0.000000D+00  0.486403D-01  0.000000D+00 -0.641827D-01
      6   0.000000D+00  0.000000D+00  0.000000D+00  0.000000D+00  0.000000D+00
      7   0.000000D+00  0.000000D+00  0.805831D-01  0.000000D+00  0.387410D-01
      8   0.000000D+00 -0.566130D-01  0.000000D+00  0.000000D+00  0.000000D+00
      9   0.000000D+00  0.000000D+00 -0.166896D+00  0.000000D+00  0.000000D+00
     10   0.000000D+00  0.341719D-01  0.000000D+00  0.000000D+00  0.000000D+00
     11   0.000000D+00  0.000000D+00 -0.591310D-01  0.000000D+00  0.736753D-01
     12   0.000000D+00  0.000000D+00  0.000000D+00  0.000000D+00  0.223219D-01
     13   0.000000D+00  0.000000D+00  0.591310D-01  0.000000D+00 -0.711437D-01
     14   0.000000D+00  0.165072D-01  0.000000D+00  0.000000D+00  0.000000D+00
     15   0.000000D+00  0.000000D+00 -0.311356D-01  0.000000D+00 -0.137516D+00
     16   0.000000D+00  0.273476D-01  0.000000D+00  0.000000D+00  0.000000D+00
                11            12            13            14            15 
      1  -0.248007D+03 -0.248007D+03 -0.248006D+03 -0.248005D+03 -0.247997D+03
      2  -0.792419D+00  0.000000D+00  0.000000D+00 -0.133719D+01  0.000000D+00
      3   0.000000D+00  0.000000D+00  0.000000D+00  0.000000D+00  0.000000D+00
      4  -0.131281D+01  0.000000D+00  0.000000D+00  0.807133D+00  0.000000D+00
      5   0.219139D+00  0.000000D+00  0.000000D+00  0.371864D+00  0.000000D+00
      6   0.000000D+00  0.000000D+00  0.000000D+00  0.000000D+00  0.000000D+00
      7   0.363051D+00  0.000000D+00  0.000000D+00 -0.224459D+00  0.000000D+00
      8   0.000000D+00  0.000000D+00  0.000000D+00  0.000000D+00  0.140972D+00
      9  -0.107404D-01  0.000000D+00  0.000000D+00  0.000000D+00  0.000000D+00
     10   0.000000D+00  0.000000D+00  0.000000D+00  0.000000D+00 -0.850914D-01
     11   0.505766D-01  0.000000D+00  0.000000D+00  0.129111D+00  0.000000D+00
     12   0.000000D+00  0.000000D+00  0.000000D+00  0.531390D-01  0.000000D+00
     13  -0.505766D-01  0.000000D+00  0.000000D+00 -0.131692D+00  0.000000D+00
     14   0.000000D+00  0.000000D+00  0.000000D+00  0.000000D+00 -0.108103D-01
     15   0.266313D-01  0.000000D+00  0.000000D+00 -0.247651D+00  0.000000D+00
     16   0.000000D+00  0.000000D+00  0.000000D+00  0.000000D+00 -0.179095D-01
                16            17            18            19            20 
      1  -0.247996D+03 -0.247994D+03 -0.247981D+03 -0.247972D+03 -0.247971D+03
      2   0.000000D+00  0.000000D+00  0.000000D+00  0.000000D+00  0.226453D+00
      3   0.000000D+00  0.000000D+00 -0.157578D+00  0.000000D+00  0.000000D+00
      4   0.000000D+00  0.000000D+00  0.000000D+00  0.000000D+00 -0.136688D+00
      5   0.000000D+00  0.000000D+00  0.000000D+00  0.000000D+00 -0.687494D-01
      6   0.000000D+00  0.000000D+00  0.238218D-01  0.000000D+00  0.000000D+00
      7   0.000000D+00  0.000000D+00  0.000000D+00  0.000000D+00  0.414975D-01
      8   0.000000D+00  0.000000D+00 -0.191117D+00  0.331650D+00  0.000000D+00
      9   0.000000D+00  0.000000D+00  0.000000D+00  0.000000D+00  0.000000D+00
     10   0.000000D+00  0.000000D+00 -0.316626D+00 -0.200186D+00  0.000000D+00
     11   0.000000D+00  0.000000D+00  0.000000D+00  0.000000D+00  0.506753D-01
     12   0.000000D+00  0.000000D+00  0.000000D+00  0.000000D+00  0.107913D-01
     13   0.000000D+00  0.000000D+00  0.000000D+00  0.000000D+00 -0.468274D+00
     14   0.000000D+00  0.000000D+00 -0.423699D-01 -0.651931D-01  0.000000D+00
     15   0.000000D+00  0.000000D+00  0.000000D+00  0.000000D+00 -0.492779D+00
     16   0.000000D+00  0.000000D+00  0.255747D-01 -0.108006D+00  0.000000D+00
 Unable to Open any file for archive entry.
 1\1\GINC-WEBMO\SP\RB3LYP TD-FC\Gen\C5H5N1\CONNOR\14-Apr-2024\0\\#p td=
 (nstates=10,50-50) B3LYP/chkbasis geom=allcheck\\opt\\0,1\C,0,-0.05327
 74434,0.0000000046,-0.0353065801\N,0,-0.0615179045,0.0000000091,1.3037
 537452\C,0,1.127164082,-0.0000000075,1.9203456643\C,0,2.3507648554,-0.
 0000000289,1.2477523458\C,0,2.3414192899,-0.0000000333,-0.1466712244\C
 ,0,1.1119436927,-0.0000000162,-0.8046181742\H,0,1.0522619986,-0.000000
 0188,-1.8891350166\H,0,3.2719627018,-0.0000000497,-0.7083519055\H,0,3.
 2825730682,-0.0000000417,1.8058492374\H,0,1.0991998174,-0.0000000035,3
 .009135084\H,0,-1.0297014096,0.0000000183,-0.5178422148\\Version=ES64L
 -G16RevC.01\State=1-A1\HF=-248.2849608\RMSD=5.470e-09\PG=C02V [C2(H1C1
 N1),SGV(C4H4)]\\@
 The archive entry for this job was punched.


 ALL PAPERS THAT YOU SAVE WILL NEVER BE NEEDED UNTIL
 SUCH TIME AS THEY ARE DISPOSED OF, WHEN THEY BECOME
 ESSENTIAL.

           -- JOHN CORCORAN IN
              PAUL DICKSON'S "THE OFFICIAL RULES"
 Job cpu time:       0 days  0 hours  3 minutes 20.8 seconds.
 Elapsed time:       0 days  0 hours  1 minutes 40.5 seconds.
 File lengths (MBytes):  RWF=    184 Int=      0 D2E=      0 Chk=      9 Scr=      1
 Normal termination of Gaussian 16 at Sun Apr 14 13:06:09 2024.
