 Entering Gaussian System, Link 0=g16
 Initial command:
 /usr/local/g16/l1.exe "/tmp/Gau-2930.inp" -scrdir="/tmp/"
 Entering Link 1 = /usr/local/g16/l1.exe PID=      2931.
  
 Copyright (c) 1988-2019, Gaussian, Inc.  All Rights Reserved.
  
 This is part of the Gaussian(R) 16 program.  It is based on
 the Gaussian(R) 09 system (copyright 2009, Gaussian, Inc.),
 the Gaussian(R) 03 system (copyright 2003, Gaussian, Inc.),
 the Gaussian(R) 98 system (copyright 1998, Gaussian, Inc.),
 the Gaussian(R) 94 system (copyright 1995, Gaussian, Inc.),
 the Gaussian 92(TM) system (copyright 1992, Gaussian, Inc.),
 the Gaussian 90(TM) system (copyright 1990, Gaussian, Inc.),
 the Gaussian 88(TM) system (copyright 1988, Gaussian, Inc.),
 the Gaussian 86(TM) system (copyright 1986, Carnegie Mellon
 University), and the Gaussian 82(TM) system (copyright 1983,
 Carnegie Mellon University). Gaussian is a federally registered
 trademark of Gaussian, Inc.
  
 This software contains proprietary and confidential information,
 including trade secrets, belonging to Gaussian, Inc.
  
 This software is provided under written license and may be
 used, copied, transmitted, or stored only in accord with that
 written license.
  
 The following legend is applicable only to US Government
 contracts under FAR:
  
                    RESTRICTED RIGHTS LEGEND
  
 Use, reproduction and disclosure by the US Government is
 subject to restrictions as set forth in subparagraphs (a)
 and (c) of the Commercial Computer Software - Restricted
 Rights clause in FAR 52.227-19.
  
 Gaussian, Inc.
 340 Quinnipiac St., Bldg. 40, Wallingford CT 06492
  
  
 ---------------------------------------------------------------
 Warning -- This program may not be used in any manner that
 competes with the business of Gaussian, Inc. or will provide
 assistance to any competitor of Gaussian, Inc.  The licensee
 of this program is prohibited from giving any competitor of
 Gaussian, Inc. access to this program.  By using this program,
 the user acknowledges that Gaussian, Inc. is engaged in the
 business of creating and licensing software in the field of
 computational chemistry and represents and warrants to the
 licensee that it is not a competitor of Gaussian, Inc. and that
 it will not use this program in any manner prohibited above.
 ---------------------------------------------------------------
  

 Cite this work as:
 Gaussian 16, Revision C.01,
 M. J. Frisch, G. W. Trucks, H. B. Schlegel, G. E. Scuseria, 
 M. A. Robb, J. R. Cheeseman, G. Scalmani, V. Barone, 
 G. A. Petersson, H. Nakatsuji, X. Li, M. Caricato, A. V. Marenich, 
 J. Bloino, B. G. Janesko, R. Gomperts, B. Mennucci, H. P. Hratchian, 
 J. V. Ortiz, A. F. Izmaylov, J. L. Sonnenberg, D. Williams-Young, 
 F. Ding, F. Lipparini, F. Egidi, J. Goings, B. Peng, A. Petrone, 
 T. Henderson, D. Ranasinghe, V. G. Zakrzewski, J. Gao, N. Rega, 
 G. Zheng, W. Liang, M. Hada, M. Ehara, K. Toyota, R. Fukuda, 
 J. Hasegawa, M. Ishida, T. Nakajima, Y. Honda, O. Kitao, H. Nakai, 
 T. Vreven, K. Throssell, J. A. Montgomery, Jr., J. E. Peralta, 
 F. Ogliaro, M. J. Bearpark, J. J. Heyd, E. N. Brothers, K. N. Kudin, 
 V. N. Staroverov, T. A. Keith, R. Kobayashi, J. Normand, 
 K. Raghavachari, A. P. Rendell, J. C. Burant, S. S. Iyengar, 
 J. Tomasi, M. Cossi, J. M. Millam, M. Klene, C. Adamo, R. Cammi, 
 J. W. Ochterski, R. L. Martin, K. Morokuma, O. Farkas, 
 J. B. Foresman, and D. J. Fox, Gaussian, Inc., Wallingford CT, 2019.
 
 ******************************************
 Gaussian 16:  ES64L-G16RevC.01  3-Jul-2019
                14-Apr-2024 
 ******************************************
 %mem=8GB
 %nprocshared=2
 Will use up to    2 processors via shared memory.
 %chk=benzene-opt.chk
 ---------------------------------------
 #p opt B3LYP/6-31G(d) geom=connectivity
 ---------------------------------------
 1/18=20,19=15,26=3,38=1,57=2/1,3;
 2/9=110,12=2,17=6,18=5,40=1/2;
 3/5=1,6=6,7=1,11=2,25=1,30=1,71=1,74=-5/1,2,3;
 4//1;
 5/5=2,38=5/2;
 6/7=2,8=2,9=2,10=2,28=1/1;
 7//1,2,3,16;
 1/18=20,19=15,26=3/3(2);
 2/9=110/2;
 99//99;
 2/9=110/2;
 3/5=1,6=6,7=1,11=2,25=1,30=1,71=1,74=-5/1,2,3;
 4/5=5,16=3,69=1/1;
 5/5=2,38=5/2;
 7//1,2,3,16;
 1/18=20,19=15,26=3/3(-5);
 2/9=110/2;
 6/7=2,8=2,9=2,10=2,19=2,28=1/1;
 99/9=1/99;
 Leave Link    1 at Sun Apr 14 12:57:45 2024, MaxMem=  1073741824 cpu:               0.0 elap:               0.0
 (Enter /usr/local/g16/l101.exe)
 ---
 opt
 ---
 Symbolic Z-matrix:
 Charge =  0 Multiplicity = 1
 C
 C                    1    B1
 C                    2    B2       1    A1
 C                    3    B3       2    A2       1    D1       0
 C                    4    B4       3    A3       2    D2       0
 C                    1    B5       2    A4       3    D3       0
 H                    6    B6       1    A5       2    D4       0
 H                    5    B7       6    A6       1    D5       0
 H                    4    B8       5    A7       6    D6       0
 H                    3    B9       2    A8       1    D7       0
 H                    2    B10      1    A9       6    D8       0
 H                    1    B11      2    A10      3    D9       0
       Variables:
  B1                    1.34242                  
  B2                    1.34242                  
  B3                    1.34242                  
  B4                    1.34242                  
  B5                    1.34242                  
  B6                    1.10393                  
  B7                    1.10393                  
  B8                    1.10393                  
  B9                    1.10393                  
  B10                   1.10393                  
  B11                   1.10393                  
  A1                  120.                       
  A2                  120.                       
  A3                  120.                       
  A4                  120.                       
  A5                  120.                       
  A6                  120.                       
  A7                  120.                       
  A8                  120.                       
  A9                  120.                       
  A10                 120.                       
  D1                    0.                       
  D2                    0.                       
  D3                    0.                       
  D4                  180.                       
  D5                 -180.                       
  D6                 -180.                       
  D7                  180.                       
  D8                  180.                       
  D9                  180.                       
 
 ITRead=  0  0  0  0  0  0  0  0  0  0  0  0
 MicOpt= -1 -1 -1 -1 -1 -1 -1 -1 -1 -1 -1 -1
 NAtoms=     12 NQM=       12 NQMF=       0 NMMI=      0 NMMIF=      0
                NMic=       0 NMicF=      0.
                    Isotopes and Nuclear Properties:
 (Nuclear quadrupole moments (NQMom) in fm**2, nuclear magnetic moments (NMagM)
  in nuclear magnetons)

  Atom         1           2           3           4           5           6           7           8           9          10
 IAtWgt=          12          12          12          12          12          12           1           1           1           1
 AtmWgt=  12.0000000  12.0000000  12.0000000  12.0000000  12.0000000  12.0000000   1.0078250   1.0078250   1.0078250   1.0078250
 NucSpn=           0           0           0           0           0           0           1           1           1           1
 AtZEff=  -0.0000000  -0.0000000  -0.0000000  -0.0000000  -0.0000000  -0.0000000  -0.0000000  -0.0000000  -0.0000000  -0.0000000
 NQMom=    0.0000000   0.0000000   0.0000000   0.0000000   0.0000000   0.0000000   0.0000000   0.0000000   0.0000000   0.0000000
 NMagM=    0.0000000   0.0000000   0.0000000   0.0000000   0.0000000   0.0000000   2.7928460   2.7928460   2.7928460   2.7928460
 AtZNuc=   6.0000000   6.0000000   6.0000000   6.0000000   6.0000000   6.0000000   1.0000000   1.0000000   1.0000000   1.0000000

  Atom        11          12
 IAtWgt=           1           1
 AtmWgt=   1.0078250   1.0078250
 NucSpn=           1           1
 AtZEff=  -0.0000000  -0.0000000
 NQMom=    0.0000000   0.0000000
 NMagM=    2.7928460   2.7928460
 AtZNuc=   1.0000000   1.0000000
 Leave Link  101 at Sun Apr 14 12:57:45 2024, MaxMem=  1073741824 cpu:               0.2 elap:               0.1
 (Enter /usr/local/g16/l103.exe)

 GradGradGradGradGradGradGradGradGradGradGradGradGradGradGradGradGradGrad
 Berny optimization.
 Initialization pass.
                           ----------------------------
                           !    Initial Parameters    !
                           ! (Angstroms and Degrees)  !
 --------------------------                            --------------------------
 ! Name  Definition              Value          Derivative Info.                !
 --------------------------------------------------------------------------------
 ! R1    R(1,2)                  1.3424         estimate D2E/DX2                !
 ! R2    R(1,6)                  1.3424         estimate D2E/DX2                !
 ! R3    R(1,12)                 1.1039         estimate D2E/DX2                !
 ! R4    R(2,3)                  1.3424         estimate D2E/DX2                !
 ! R5    R(2,11)                 1.1039         estimate D2E/DX2                !
 ! R6    R(3,4)                  1.3424         estimate D2E/DX2                !
 ! R7    R(3,10)                 1.1039         estimate D2E/DX2                !
 ! R8    R(4,5)                  1.3424         estimate D2E/DX2                !
 ! R9    R(4,9)                  1.1039         estimate D2E/DX2                !
 ! R10   R(5,6)                  1.3424         estimate D2E/DX2                !
 ! R11   R(5,8)                  1.1039         estimate D2E/DX2                !
 ! R12   R(6,7)                  1.1039         estimate D2E/DX2                !
 ! A1    A(2,1,6)              120.0            estimate D2E/DX2                !
 ! A2    A(2,1,12)             120.0            estimate D2E/DX2                !
 ! A3    A(6,1,12)             120.0            estimate D2E/DX2                !
 ! A4    A(1,2,3)              120.0            estimate D2E/DX2                !
 ! A5    A(1,2,11)             120.0            estimate D2E/DX2                !
 ! A6    A(3,2,11)             120.0            estimate D2E/DX2                !
 ! A7    A(2,3,4)              120.0            estimate D2E/DX2                !
 ! A8    A(2,3,10)             120.0            estimate D2E/DX2                !
 ! A9    A(4,3,10)             120.0            estimate D2E/DX2                !
 ! A10   A(3,4,5)              120.0            estimate D2E/DX2                !
 ! A11   A(3,4,9)              120.0            estimate D2E/DX2                !
 ! A12   A(5,4,9)              120.0            estimate D2E/DX2                !
 ! A13   A(4,5,6)              120.0            estimate D2E/DX2                !
 ! A14   A(4,5,8)              120.0            estimate D2E/DX2                !
 ! A15   A(6,5,8)              120.0            estimate D2E/DX2                !
 ! A16   A(1,6,5)              120.0            estimate D2E/DX2                !
 ! A17   A(1,6,7)              120.0            estimate D2E/DX2                !
 ! A18   A(5,6,7)              120.0            estimate D2E/DX2                !
 ! D1    D(6,1,2,3)              0.0            estimate D2E/DX2                !
 ! D2    D(6,1,2,11)           180.0            estimate D2E/DX2                !
 ! D3    D(12,1,2,3)           180.0            estimate D2E/DX2                !
 ! D4    D(12,1,2,11)            0.0            estimate D2E/DX2                !
 ! D5    D(2,1,6,5)              0.0            estimate D2E/DX2                !
 ! D6    D(2,1,6,7)            180.0            estimate D2E/DX2                !
 ! D7    D(12,1,6,5)           180.0            estimate D2E/DX2                !
 ! D8    D(12,1,6,7)             0.0            estimate D2E/DX2                !
 ! D9    D(1,2,3,4)              0.0            estimate D2E/DX2                !
 ! D10   D(1,2,3,10)           180.0            estimate D2E/DX2                !
 ! D11   D(11,2,3,4)           180.0            estimate D2E/DX2                !
 ! D12   D(11,2,3,10)            0.0            estimate D2E/DX2                !
 ! D13   D(2,3,4,5)              0.0            estimate D2E/DX2                !
 ! D14   D(2,3,4,9)            180.0            estimate D2E/DX2                !
 ! D15   D(10,3,4,5)           180.0            estimate D2E/DX2                !
 ! D16   D(10,3,4,9)             0.0            estimate D2E/DX2                !
 ! D17   D(3,4,5,6)              0.0            estimate D2E/DX2                !
 ! D18   D(3,4,5,8)            180.0            estimate D2E/DX2                !
 ! D19   D(9,4,5,6)            180.0            estimate D2E/DX2                !
 ! D20   D(9,4,5,8)              0.0            estimate D2E/DX2                !
 ! D21   D(4,5,6,1)              0.0            estimate D2E/DX2                !
 ! D22   D(4,5,6,7)            180.0            estimate D2E/DX2                !
 ! D23   D(8,5,6,1)            180.0            estimate D2E/DX2                !
 ! D24   D(8,5,6,7)              0.0            estimate D2E/DX2                !
 --------------------------------------------------------------------------------
 Trust Radius=3.00D-01 FncErr=1.00D-07 GrdErr=1.00D-06 EigMax=2.50D+02 EigMin=1.00D-04
 Number of steps in this run=     64 maximum allowed number of steps=    100.
 GradGradGradGradGradGradGradGradGradGradGradGradGradGradGradGradGradGrad

 Leave Link  103 at Sun Apr 14 12:57:46 2024, MaxMem=  1073741824 cpu:               0.0 elap:               0.0
 (Enter /usr/local/g16/l202.exe)
                          Input orientation:                          
 ---------------------------------------------------------------------
 Center     Atomic      Atomic             Coordinates (Angstroms)
 Number     Number       Type             X           Y           Z
 ---------------------------------------------------------------------
      1          6           0        0.000000    0.000000    0.000000
      2          6           0        0.000000    0.000000    1.342424
      3          6           0        1.162573    0.000000    2.013635
      4          6           0        2.325146    0.000000    1.342424
      5          6           0        2.325146    0.000000    0.000000
      6          6           0        1.162573    0.000000   -0.671212
      7          1           0        1.162573    0.000000   -1.775143
      8          1           0        3.281178    0.000000   -0.551965
      9          1           0        3.281178    0.000000    1.894389
     10          1           0        1.162573    0.000000    3.117566
     11          1           0       -0.956032    0.000000    1.894389
     12          1           0       -0.956032    0.000000   -0.551965
 ---------------------------------------------------------------------
                    Distance matrix (angstroms):
                    1          2          3          4          5
     1  C    0.000000
     2  C    1.342424   0.000000
     3  C    2.325146   1.342424   0.000000
     4  C    2.684847   2.325146   1.342424   0.000000
     5  C    2.325146   2.684847   2.325146   1.342424   0.000000
     6  C    1.342424   2.325146   2.684847   2.325146   1.342424
     7  H    2.121958   3.327281   3.788778   3.327281   2.121958
     8  H    3.327281   3.788778   3.327281   2.121958   1.103931
     9  H    3.788778   3.327281   2.121958   1.103931   2.121958
    10  H    3.327281   2.121958   1.103931   2.121958   3.327281
    11  H    2.121958   1.103931   2.121958   3.327281   3.788778
    12  H    1.103931   2.121958   3.327281   3.788778   3.327281
                    6          7          8          9         10
     6  C    0.000000
     7  H    1.103931   0.000000
     8  H    2.121958   2.446354   0.000000
     9  H    3.327281   4.237210   2.446354   0.000000
    10  H    3.788778   4.892709   4.237210   2.446354   0.000000
    11  H    3.327281   4.237210   4.892709   4.237210   2.446354
    12  H    2.121958   2.446354   4.237210   4.892709   4.237210
                   11         12
    11  H    0.000000
    12  H    2.446354   0.000000
 Stoichiometry    C6H6
 Framework group  D6H[3C2'(HC.CH)]
 Deg. of freedom     2
 Full point group                 D6H     NOp  24
 Largest Abelian subgroup         D2H     NOp   8
 Largest concise Abelian subgroup D2      NOp   4
                         Standard orientation:                         
 ---------------------------------------------------------------------
 Center     Atomic      Atomic             Coordinates (Angstroms)
 Number     Number       Type             X           Y           Z
 ---------------------------------------------------------------------
      1          6           0       -0.000000    1.342424    0.000000
      2          6           0        1.162573    0.671212   -0.000000
      3          6           0        1.162573   -0.671212   -0.000000
      4          6           0       -0.000000   -1.342424    0.000000
      5          6           0       -1.162573   -0.671212    0.000000
      6          6           0       -1.162573    0.671212    0.000000
      7          1           0       -2.118605    1.223177    0.000000
      8          1           0       -2.118605   -1.223177   -0.000000
      9          1           0       -0.000000   -2.446354    0.000000
     10          1           0        2.118605   -1.223177    0.000000
     11          1           0        2.118605    1.223177    0.000000
     12          1           0        0.000000    2.446354    0.000000
 ---------------------------------------------------------------------
 Rotational constants (GHZ):           6.0910992           6.0910992           3.0455496
 Leave Link  202 at Sun Apr 14 12:57:46 2024, MaxMem=  1073741824 cpu:               0.0 elap:               0.0
 (Enter /usr/local/g16/l301.exe)
 Standard basis: 6-31G(d) (6D, 7F)
 Ernie: Thresh=  0.10000D-02 Tol=  0.10000D-05 Strict=F.
 There are    23 symmetry adapted cartesian basis functions of AG  symmetry.
 There are    16 symmetry adapted cartesian basis functions of B1G symmetry.
 There are     5 symmetry adapted cartesian basis functions of B2G symmetry.
 There are     7 symmetry adapted cartesian basis functions of B3G symmetry.
 There are     5 symmetry adapted cartesian basis functions of AU  symmetry.
 There are     7 symmetry adapted cartesian basis functions of B1U symmetry.
 There are    23 symmetry adapted cartesian basis functions of B2U symmetry.
 There are    16 symmetry adapted cartesian basis functions of B3U symmetry.
 There are    23 symmetry adapted basis functions of AG  symmetry.
 There are    16 symmetry adapted basis functions of B1G symmetry.
 There are     5 symmetry adapted basis functions of B2G symmetry.
 There are     7 symmetry adapted basis functions of B3G symmetry.
 There are     5 symmetry adapted basis functions of AU  symmetry.
 There are     7 symmetry adapted basis functions of B1U symmetry.
 There are    23 symmetry adapted basis functions of B2U symmetry.
 There are    16 symmetry adapted basis functions of B3U symmetry.
   102 basis functions,   192 primitive gaussians,   102 cartesian basis functions
    21 alpha electrons       21 beta electrons
       nuclear repulsion energy       209.6550701560 Hartrees.
 IExCor=  402 DFT=T Ex+Corr=B3LYP ExCW=0 ScaHFX=  0.200000
 ScaDFX=  0.800000  0.720000  1.000000  0.810000 ScalE2=  1.000000  1.000000
 IRadAn=      5 IRanWt=     -1 IRanGd=            0 ICorTp=0 IEmpDi=  4
 NAtoms=   12 NActive=   12 NUniq=    2 SFac= 4.00D+00 NAtFMM=   60 NAOKFM=F Big=F
 Integral buffers will be    131072 words long.
 Raffenetti 2 integral format.
 Two-electron integral symmetry is turned on.
 Leave Link  301 at Sun Apr 14 12:57:46 2024, MaxMem=  1073741824 cpu:               0.1 elap:               0.0
 (Enter /usr/local/g16/l302.exe)
 NPDir=0 NMtPBC=     1 NCelOv=     1 NCel=       1 NClECP=     1 NCelD=      1
         NCelK=      1 NCelE2=     1 NClLst=     1 CellRange=     0.0.
 One-electron integrals computed using PRISM.
 One-electron integral symmetry used in STVInt
 NBasis=   102 RedAO= T EigKep=  3.62D-04  NBF=    23    16     5     7     5     7    23    16
 NBsUse=   102 1.00D-06 EigRej= -1.00D+00 NBFU=    23    16     5     7     5     7    23    16
 Precomputing XC quadrature grid using
 IXCGrd= 4 IRadAn=           5 IRanWt=          -1 IRanGd=           0 AccXCQ= 0.00D+00.
 Generated NRdTot=       0 NPtTot=           0 NUsed=           0 NTot=          32
 NSgBfM=   102   102   102   102   102 MxSgAt=    12 MxSgA2=    12.
 Leave Link  302 at Sun Apr 14 12:57:46 2024, MaxMem=  1073741824 cpu:               0.2 elap:               0.1
 (Enter /usr/local/g16/l303.exe)
 DipDrv:  MaxL=1.
 Leave Link  303 at Sun Apr 14 12:57:46 2024, MaxMem=  1073741824 cpu:               0.0 elap:               0.0
 (Enter /usr/local/g16/l401.exe)
 ExpMin= 1.61D-01 ExpMax= 3.05D+03 ExpMxC= 4.57D+02 IAcc=3 IRadAn=         5 AccDes= 0.00D+00
 Harris functional with IExCor=  402 and IRadAn=       5 diagonalized for initial guess.
 HarFok:  IExCor=  402 AccDes= 0.00D+00 IRadAn=         5 IDoV= 1 UseB2=F ITyADJ=14
 ICtDFT=  3500011 ScaDFX=  1.000000  1.000000  1.000000  1.000000
 FoFCou: FMM=F IPFlag=           0 FMFlag=      100000 FMFlg1=           0
         NFxFlg=           0 DoJE=T BraDBF=F KetDBF=T FulRan=T
         wScrn=  0.000000 ICntrl=       500 IOpCl=  0 I1Cent=   200000004 NGrid=           0
         NMat0=    1 NMatS0=      1 NMatT0=    0 NMatD0=    1 NMtDS0=    0 NMtDT0=    0
 Petite list used in FoFCou.
 Harris En= -232.286768118781    
 JPrj=0 DoOrth=F DoCkMO=F.
 Initial guess orbital symmetries:
       Occupied  (A1G) (E1U) (E1U) (E2G) (E2G) (B1U) (A1G) (E1U)
                 (E1U) (E2G) (E2G) (A1G) (B2U) (E1U) (E1U) (B1U)
                 (A2U) (E2G) (E2G) (E1G) (E1G)
       Virtual   (E2U) (E2U) (A1G) (B2G) (E1U) (E1U) (E2G) (E2G)
                 (B1U) (E2G) (E2G) (E1U) (E1U) (B2U) (A2U) (A1G)
                 (B1U) (A2G) (E2G) (E2G) (E1G) (E1G) (A1G) (E1U)
                 (E1U) (E2U) (E2U) (B2G) (E2G) (E2G) (B1U) (E1U)
                 (E1U) (A1G) (E1U) (E1U) (A2G) (E2G) (E2G) (E1U)
                 (E1U) (B1G) (B1U) (A2U) (E2U) (E2U) (E2G) (E2G)
                 (E1G) (E1G) (A1G) (B2U) (A1G) (E1U) (E1U) (B1U)
                 (E2G) (E2G) (E2U) (E2U) (E1U) (E1U) (E1G) (E1G)
                 (B2G) (E2G) (E2G) (E1U) (E1U) (A1U) (E2G) (E2G)
                 (B1U) (A2G) (B1U) (E1U) (E1U) (A1G) (E2G) (E2G)
                 (B1U)
 The electronic state of the initial guess is 1-A1G.
 Leave Link  401 at Sun Apr 14 12:57:46 2024, MaxMem=  1073741824 cpu:               0.3 elap:               0.2
 (Enter /usr/local/g16/l502.exe)
 Keep R1 ints in memory in symmetry-blocked form, NReq=15691207.
 FoFCou: FMM=F IPFlag=           0 FMFlag=           0 FMFlg1=           0
         NFxFlg=           0 DoJE=F BraDBF=F KetDBF=F FulRan=T
         wScrn=  0.000000 ICntrl=       600 IOpCl=  0 I1Cent=           0 NGrid=           0
         NMat0=    1 NMatS0=   5253 NMatT0=    0 NMatD0=    1 NMtDS0=    0 NMtDT0=    0
 Petite list used in FoFCou.
 Closed shell SCF:
 Using DIIS extrapolation, IDIIS=  1040.
 NGot=  1073741824 LenX=  1071828403 LenY=  1071817558
 Requested convergence on RMS density matrix=1.00D-08 within 128 cycles.
 Requested convergence on MAX density matrix=1.00D-06.
 Requested convergence on             energy=1.00D-06.
 No special actions if energy rises.
 Integral accuracy reduced to 1.0D-05 until final iterations.

 Cycle   1  Pass 0  IDiag  1:
 E= -232.030752806125    
 DIIS: error= 5.33D-02 at cycle   1 NSaved=   1.
 NSaved= 1 IEnMin= 1 EnMin= -232.030752806125     IErMin= 1 ErrMin= 5.33D-02
 ErrMax= 5.33D-02  0.00D+00 EMaxC= 1.00D-01 BMatC= 1.76D-01 BMatP= 1.76D-01
 IDIUse=3 WtCom= 4.67D-01 WtEn= 5.33D-01
 Coeff-Com:  0.100D+01
 Coeff-En:   0.100D+01
 Coeff:      0.100D+01
 Gap=     0.245 Goal=   None    Shift=    0.000
 GapD=    0.245 DampG=1.000 DampE=0.500 DampFc=0.5000 IDamp=-1.
 Damping current iteration by 5.00D-01
 RMSDP=9.89D-03 MaxDP=1.40D-01              OVMax= 1.89D-01

 Cycle   2  Pass 0  IDiag  1:
 E= -232.120687816124     Delta-E=       -0.089935009999 Rises=F Damp=T
 DIIS: error= 8.55D-03 at cycle   2 NSaved=   2.
 NSaved= 2 IEnMin= 2 EnMin= -232.120687816124     IErMin= 2 ErrMin= 8.55D-03
 ErrMax= 8.55D-03  0.00D+00 EMaxC= 1.00D-01 BMatC= 7.80D-03 BMatP= 1.76D-01
 IDIUse=3 WtCom= 9.14D-01 WtEn= 8.55D-02
 Coeff-Com:  0.467D-01 0.953D+00
 Coeff-En:   0.860D-01 0.914D+00
 Coeff:      0.500D-01 0.950D+00
 Gap=     0.274 Goal=   None    Shift=    0.000
 RMSDP=2.30D-03 MaxDP=2.70D-02 DE=-8.99D-02 OVMax= 1.13D-01

 Cycle   3  Pass 0  IDiag  1:
 E= -232.228989194494     Delta-E=       -0.108301378370 Rises=F Damp=F
 DIIS: error= 5.13D-03 at cycle   3 NSaved=   3.
 NSaved= 3 IEnMin= 3 EnMin= -232.228989194494     IErMin= 3 ErrMin= 5.13D-03
 ErrMax= 5.13D-03  0.00D+00 EMaxC= 1.00D-01 BMatC= 1.09D-03 BMatP= 7.80D-03
 IDIUse=3 WtCom= 9.49D-01 WtEn= 5.13D-02
 Coeff-Com: -0.257D-01 0.221D+00 0.805D+00
 Coeff-En:   0.000D+00 0.000D+00 0.100D+01
 Coeff:     -0.244D-01 0.209D+00 0.815D+00
 Gap=     0.269 Goal=   None    Shift=    0.000
 RMSDP=4.55D-04 MaxDP=3.76D-03 DE=-1.08D-01 OVMax= 7.58D-03

 Cycle   4  Pass 0  IDiag  1:
 E= -232.229927638420     Delta-E=       -0.000938443926 Rises=F Damp=F
 DIIS: error= 6.01D-04 at cycle   4 NSaved=   4.
 NSaved= 4 IEnMin= 4 EnMin= -232.229927638420     IErMin= 4 ErrMin= 6.01D-04
 ErrMax= 6.01D-04  0.00D+00 EMaxC= 1.00D-01 BMatC= 3.19D-05 BMatP= 1.09D-03
 IDIUse=3 WtCom= 9.94D-01 WtEn= 6.01D-03
 Coeff-Com: -0.804D-02 0.143D-01 0.176D+00 0.818D+00
 Coeff-En:   0.000D+00 0.000D+00 0.000D+00 0.100D+01
 Coeff:     -0.799D-02 0.143D-01 0.175D+00 0.819D+00
 Gap=     0.270 Goal=   None    Shift=    0.000
 RMSDP=5.77D-05 MaxDP=4.27D-04 DE=-9.38D-04 OVMax= 1.02D-03

 Cycle   5  Pass 0  IDiag  1:
 E= -232.229957008921     Delta-E=       -0.000029370501 Rises=F Damp=F
 DIIS: error= 2.47D-05 at cycle   5 NSaved=   5.
 NSaved= 5 IEnMin= 5 EnMin= -232.229957008921     IErMin= 5 ErrMin= 2.47D-05
 ErrMax= 2.47D-05  0.00D+00 EMaxC= 1.00D-01 BMatC= 3.98D-08 BMatP= 3.19D-05
 IDIUse=1 WtCom= 1.00D+00 WtEn= 0.00D+00
 Coeff-Com: -0.273D-03-0.556D-03 0.583D-02 0.545D-01 0.941D+00
 Coeff:     -0.273D-03-0.556D-03 0.583D-02 0.545D-01 0.941D+00
 Gap=     0.270 Goal=   None    Shift=    0.000
 RMSDP=4.26D-06 MaxDP=4.37D-05 DE=-2.94D-05 OVMax= 5.76D-05

 Initial convergence to 1.0D-05 achieved.  Increase integral accuracy.
 Cycle   6  Pass 1  IDiag  1:
 E= -232.229941210218     Delta-E=        0.000015798703 Rises=F Damp=F
 DIIS: error= 1.02D-05 at cycle   1 NSaved=   1.
 NSaved= 1 IEnMin= 1 EnMin= -232.229941210218     IErMin= 1 ErrMin= 1.02D-05
 ErrMax= 1.02D-05  0.00D+00 EMaxC= 1.00D-01 BMatC= 1.22D-09 BMatP= 1.22D-09
 IDIUse=1 WtCom= 1.00D+00 WtEn= 0.00D+00
 Coeff-Com:  0.100D+01
 Coeff:      0.100D+01
 Gap=     0.270 Goal=   None    Shift=    0.000
 RMSDP=4.26D-06 MaxDP=4.37D-05 DE= 1.58D-05 OVMax= 2.25D-05

 Cycle   7  Pass 1  IDiag  1:
 E= -232.229941212075     Delta-E=       -0.000000001857 Rises=F Damp=F
 DIIS: error= 2.02D-06 at cycle   2 NSaved=   2.
 NSaved= 2 IEnMin= 2 EnMin= -232.229941212075     IErMin= 2 ErrMin= 2.02D-06
 ErrMax= 2.02D-06  0.00D+00 EMaxC= 1.00D-01 BMatC= 2.53D-10 BMatP= 1.22D-09
 IDIUse=1 WtCom= 1.00D+00 WtEn= 0.00D+00
 Coeff-Com:  0.244D+00 0.756D+00
 Coeff:      0.244D+00 0.756D+00
 Gap=     0.270 Goal=   None    Shift=    0.000
 RMSDP=2.86D-07 MaxDP=2.85D-06 DE=-1.86D-09 OVMax= 5.25D-06

 Cycle   8  Pass 1  IDiag  1:
 E= -232.229941212237     Delta-E=       -0.000000000162 Rises=F Damp=F
 DIIS: error= 1.11D-06 at cycle   3 NSaved=   3.
 NSaved= 3 IEnMin= 3 EnMin= -232.229941212237     IErMin= 3 ErrMin= 1.11D-06
 ErrMax= 1.11D-06  0.00D+00 EMaxC= 1.00D-01 BMatC= 8.55D-11 BMatP= 2.53D-10
 IDIUse=1 WtCom= 1.00D+00 WtEn= 0.00D+00
 Coeff-Com: -0.110D-01 0.363D+00 0.648D+00
 Coeff:     -0.110D-01 0.363D+00 0.648D+00
 Gap=     0.270 Goal=   None    Shift=    0.000
 RMSDP=1.04D-07 MaxDP=1.22D-06 DE=-1.62D-10 OVMax= 2.31D-06

 Cycle   9  Pass 1  IDiag  1:
 E= -232.229941212325     Delta-E=       -0.000000000088 Rises=F Damp=F
 DIIS: error= 9.36D-08 at cycle   4 NSaved=   4.
 NSaved= 4 IEnMin= 4 EnMin= -232.229941212325     IErMin= 4 ErrMin= 9.36D-08
 ErrMax= 9.36D-08  0.00D+00 EMaxC= 1.00D-01 BMatC= 5.00D-13 BMatP= 8.55D-11
 IDIUse=1 WtCom= 1.00D+00 WtEn= 0.00D+00
 Coeff-Com: -0.736D-02 0.940D-01 0.196D+00 0.718D+00
 Coeff:     -0.736D-02 0.940D-01 0.196D+00 0.718D+00
 Gap=     0.270 Goal=   None    Shift=    0.000
 RMSDP=8.17D-09 MaxDP=1.12D-07 DE=-8.81D-11 OVMax= 1.61D-07

 SCF Done:  E(RB3LYP) =  -232.229941212     A.U. after    9 cycles
            NFock=  9  Conv=0.82D-08     -V/T= 2.0067
 KE= 2.306795166332D+02 PE=-9.572237143103D+02 EE= 2.846591863087D+02
 Leave Link  502 at Sun Apr 14 12:57:47 2024, MaxMem=  1073741824 cpu:               1.7 elap:               0.9
 (Enter /usr/local/g16/l601.exe)
 Copying SCF densities to generalized density rwf, IOpCl= 0 IROHF=0.

 **********************************************************************

            Population analysis using the SCF Density.

 **********************************************************************

 Orbital symmetries:
       Occupied  (A1G) (E1U) (E1U) (E2G) (E2G) (B1U) (A1G) (E1U)
                 (E1U) (E2G) (E2G) (A1G) (B2U) (B1U) (E1U) (E1U)
                 (A2U) (E2G) (E2G) (E1G) (E1G)
       Virtual   (E2U) (E2U) (A1G) (E1U) (E1U) (E2G) (E2G) (B2G)
                 (B1U) (E2G) (E2G) (E1U) (E1U) (B2U) (A2U) (A1G)
                 (E1G) (E1G) (A1G) (B1U) (A2G) (E2G) (E2G) (E1U)
                 (E1U) (E2U) (E2U) (B2G) (E2G) (E2G) (E1U) (E1U)
                 (B1U) (A1G) (E1U) (E1U) (A2G) (E2G) (E2G) (E1U)
                 (E1U) (B1U) (B1G) (A2U) (E2G) (E2G) (E2U) (E2U)
                 (E1G) (E1G) (A1G) (B2U) (A1G) (B1U) (E1U) (E1U)
                 (E2G) (E2G) (E2U) (E2U) (E1U) (E1U) (E1G) (E1G)
                 (B2G) (E2G) (E2G) (A1U) (B1U) (E1U) (E1U) (E2G)
                 (E2G) (A2G) (B1U) (E1U) (E1U) (A1G) (E2G) (E2G)
                 (B1U)
 The electronic state is 1-A1G.
 Alpha  occ. eigenvalues --  -10.17625 -10.17586 -10.17586 -10.17504 -10.17504
 Alpha  occ. eigenvalues --  -10.17464  -0.87456  -0.75197  -0.75197  -0.60118
 Alpha  occ. eigenvalues --   -0.60118  -0.52832  -0.45400  -0.44161  -0.41875
 Alpha  occ. eigenvalues --   -0.41875  -0.37908  -0.33573  -0.33573  -0.25431
 Alpha  occ. eigenvalues --   -0.25431
 Alpha virt. eigenvalues --    0.01540   0.01540   0.08089   0.13862   0.13862
 Alpha virt. eigenvalues --    0.18886   0.18886   0.19270   0.19575   0.32116
 Alpha virt. eigenvalues --    0.32116   0.34901   0.34901   0.46031   0.52029
 Alpha virt. eigenvalues --    0.56206   0.59374   0.59374   0.59894   0.60168
 Alpha virt. eigenvalues --    0.61377   0.63044   0.63044   0.63261   0.63261
 Alpha virt. eigenvalues --    0.67132   0.67132   0.75496   0.82596   0.82596
 Alpha virt. eigenvalues --    0.83803   0.83803   0.86671   0.92697   0.96530
 Alpha virt. eigenvalues --    0.96530   1.00522   1.10625   1.10625   1.17695
 Alpha virt. eigenvalues --    1.17695   1.24341   1.26404   1.37479   1.45134
 Alpha virt. eigenvalues --    1.45134   1.51023   1.51023   1.52548   1.52548
 Alpha virt. eigenvalues --    1.73243   1.83745   1.87513   1.94195   1.98403
 Alpha virt. eigenvalues --    1.98403   2.15516   2.15516   2.19406   2.19406
 Alpha virt. eigenvalues --    2.23063   2.23063   2.36485   2.36485   2.39888
 Alpha virt. eigenvalues --    2.56896   2.56896   2.76729   2.77585   2.79175
 Alpha virt. eigenvalues --    2.79175   2.81456   2.81456   3.08891   3.56526
 Alpha virt. eigenvalues --    4.13101   4.13101   4.13558   4.34356   4.34356
 Alpha virt. eigenvalues --    4.71187
          Condensed to atoms (all electrons):
               1          2          3          4          5          6
     1  C    4.813560   0.575240  -0.033385  -0.052090  -0.033385   0.575240
     2  C    0.575240   4.813560   0.575240  -0.033385  -0.052090  -0.033385
     3  C   -0.033385   0.575240   4.813560   0.575240  -0.033385  -0.052090
     4  C   -0.052090  -0.033385   0.575240   4.813560   0.575240  -0.033385
     5  C   -0.033385  -0.052090  -0.033385   0.575240   4.813560   0.575240
     6  C    0.575240  -0.033385  -0.052090  -0.033385   0.575240   4.813560
     7  H   -0.045933   0.005721   0.000908   0.005721  -0.045933   0.356472
     8  H    0.005721   0.000908   0.005721  -0.045933   0.356472  -0.045933
     9  H    0.000908   0.005721  -0.045933   0.356472  -0.045933   0.005721
    10  H    0.005721  -0.045933   0.356472  -0.045933   0.005721   0.000908
    11  H   -0.045933   0.356472  -0.045933   0.005721   0.000908   0.005721
    12  H    0.356472  -0.045933   0.005721   0.000908   0.005721  -0.045933
               7          8          9         10         11         12
     1  C   -0.045933   0.005721   0.000908   0.005721  -0.045933   0.356472
     2  C    0.005721   0.000908   0.005721  -0.045933   0.356472  -0.045933
     3  C    0.000908   0.005721  -0.045933   0.356472  -0.045933   0.005721
     4  C    0.005721  -0.045933   0.356472  -0.045933   0.005721   0.000908
     5  C   -0.045933   0.356472  -0.045933   0.005721   0.000908   0.005721
     6  C    0.356472  -0.045933   0.005721   0.000908   0.005721  -0.045933
     7  H    0.616859  -0.007756  -0.000233   0.000024  -0.000233  -0.007756
     8  H   -0.007756   0.616859  -0.007756  -0.000233   0.000024  -0.000233
     9  H   -0.000233  -0.007756   0.616859  -0.007756  -0.000233   0.000024
    10  H    0.000024  -0.000233  -0.007756   0.616859  -0.007756  -0.000233
    11  H   -0.000233   0.000024  -0.000233  -0.007756   0.616859  -0.007756
    12  H   -0.007756  -0.000233   0.000024  -0.000233  -0.007756   0.616859
 Mulliken charges:
               1
     1  C   -0.122138
     2  C   -0.122138
     3  C   -0.122138
     4  C   -0.122138
     5  C   -0.122138
     6  C   -0.122138
     7  H    0.122138
     8  H    0.122138
     9  H    0.122138
    10  H    0.122138
    11  H    0.122138
    12  H    0.122138
 Sum of Mulliken charges =  -0.00000
 Mulliken charges with hydrogens summed into heavy atoms:
               1
     1  C   -0.000000
     2  C   -0.000000
     3  C   -0.000000
     4  C   -0.000000
     5  C   -0.000000
     6  C   -0.000000
 Electronic spatial extent (au):  <R**2>=            435.4362
 Charge=             -0.0000 electrons
 Dipole moment (field-independent basis, Debye):
    X=             -0.0000    Y=              0.0000    Z=              0.0000  Tot=              0.0000
 Quadrupole moment (field-independent basis, Debye-Ang):
   XX=            -31.8093   YY=            -31.8093   ZZ=            -37.9741
   XY=              0.0000   XZ=              0.0000   YZ=              0.0000
 Traceless Quadrupole moment (field-independent basis, Debye-Ang):
   XX=              2.0549   YY=              2.0549   ZZ=             -4.1099
   XY=              0.0000   XZ=              0.0000   YZ=              0.0000
 Octapole moment (field-independent basis, Debye-Ang**2):
  XXX=             -0.0000  YYY=              0.0000  ZZZ=             -0.0000  XYY=              0.0000
  XXY=             -0.0000  XXZ=              0.0000  XZZ=             -0.0000  YZZ=              0.0000
  YYZ=              0.0000  XYZ=              0.0000
 Hexadecapole moment (field-independent basis, Debye-Ang**3):
 XXXX=           -258.9807 YYYY=           -258.9807 ZZZZ=            -38.7617 XXXY=             -0.0000
 XXXZ=              0.0000 YYYX=              0.0000 YYYZ=             -0.0000 ZZZX=             -0.0000
 ZZZY=             -0.0000 XXYY=            -86.3269 XXZZ=            -57.1084 YYZZ=            -57.1084
 XXYZ=              0.0000 YYXZ=              0.0000 ZZXY=              0.0000
 N-N= 2.096550701560D+02 E-N=-9.572237247458D+02  KE= 2.306795166332D+02
 Symmetry AG   KE= 7.425217364400D+01
 Symmetry B1G  KE= 3.756848166839D+01
 Symmetry B2G  KE= 2.279482735352D+00
 Symmetry B3G  KE= 2.279482735352D+00
 Symmetry AU   KE= 2.514516954203D-16
 Symmetry B1U  KE= 1.889931087509D+00
 Symmetry B2U  KE= 7.186860857569D+01
 Symmetry B3U  KE= 4.054135618693D+01
 No NMR shielding tensors so no spin-rotation constants.
 Leave Link  601 at Sun Apr 14 12:57:47 2024, MaxMem=  1073741824 cpu:               0.1 elap:               0.1
 (Enter /usr/local/g16/l701.exe)
 ... and contract with generalized density number  0.
 Compute integral first derivatives.
 Leave Link  701 at Sun Apr 14 12:57:47 2024, MaxMem=  1073741824 cpu:               0.1 elap:               0.1
 (Enter /usr/local/g16/l702.exe)
 L702 exits ... SP integral derivatives will be done elsewhere.
 Leave Link  702 at Sun Apr 14 12:57:47 2024, MaxMem=  1073741824 cpu:               0.0 elap:               0.0
 (Enter /usr/local/g16/l703.exe)
 Integral derivatives from FoFJK, PRISM(SPDF).
 Compute integral first derivatives, UseDBF=F ICtDFT=           0.
 Calling FoFJK, ICntrl=      2127 FMM=F ISym2X=1 I1Cent= 0 IOpClX= 0 NMat=1 NMatS=1 NMatT=0.
 FoFJK:  IHMeth= 1 ICntrl=    2127 DoSepK=F KAlg= 0 I1Cent=           0 FoldK=F
 IRaf=         0 NMat=       1 IRICut=       1 DoRegI=T DoRafI=F ISym2E= 1 IDoP0=0 IntGTp=1.
 FoFCou: FMM=F IPFlag=           0 FMFlag=      100000 FMFlg1=         800
         NFxFlg=           0 DoJE=F BraDBF=F KetDBF=F FulRan=T
         wScrn=  0.000000 ICntrl=      2127 IOpCl=  0 I1Cent=           0 NGrid=           0
         NMat0=    1 NMatS0=      1 NMatT0=    0 NMatD0=    1 NMtDS0=    0 NMtDT0=    0
 Petite list used in FoFCou.
 Leave Link  703 at Sun Apr 14 12:57:47 2024, MaxMem=  1073741824 cpu:               0.6 elap:               0.3
 (Enter /usr/local/g16/l716.exe)
 Dipole        =-5.77315973D-15-2.66453526D-15 1.95176565D-17
 ***** Axes restored to original set *****
 -------------------------------------------------------------------
 Center     Atomic                   Forces (Hartrees/Bohr)
 Number     Number              X              Y              Z
 -------------------------------------------------------------------
      1        6          -0.060899511   -0.000000000   -0.035160349
      2        6          -0.060899511   -0.000000000    0.035160349
      3        6          -0.000000000   -0.000000000    0.070320699
      4        6           0.060899511    0.000000000    0.035160349
      5        6           0.060899511    0.000000000   -0.035160349
      6        6           0.000000000   -0.000000000   -0.070320699
      7        1          -0.000000000   -0.000000000    0.009679959
      8        1          -0.008383090   -0.000000000    0.004839979
      9        1          -0.008383090    0.000000000   -0.004839979
     10        1          -0.000000000    0.000000000   -0.009679959
     11        1           0.008383090    0.000000000   -0.004839979
     12        1           0.008383090   -0.000000000    0.004839979
 -------------------------------------------------------------------
 Cartesian Forces:  Max     0.070320699 RMS     0.028979022
 Leave Link  716 at Sun Apr 14 12:57:47 2024, MaxMem=  1073741824 cpu:               0.0 elap:               0.0
 (Enter /usr/local/g16/l103.exe)

 GradGradGradGradGradGradGradGradGradGradGradGradGradGradGradGradGradGrad
 Berny optimization.
 FormGI is forming the generalized inverse of G from B-inverse, IUseBI=4.
 Internal  Forces:  Max     0.060640740 RMS     0.020469492
 Search for a local minimum.
 Step number   1 out of a maximum of   64
 All quantities printed in internal units (Hartrees-Bohrs-Radians)
 RMS Force = .20469D-01 SwitMx=.10000D-02 MixMth= 1
 Mixed Optimization -- RFO/linear search
 Second derivative matrix not updated -- first step.
 ITU=  0
     Eigenvalues ---    0.02850   0.02850   0.02850   0.02850   0.02850
     Eigenvalues ---    0.02850   0.02850   0.02850   0.02850   0.16000
     Eigenvalues ---    0.16000   0.16000   0.16000   0.16000   0.16000
     Eigenvalues ---    0.22000   0.22000   0.22000   0.33251   0.33251
     Eigenvalues ---    0.33251   0.33251   0.33251   0.33251   0.50113
     Eigenvalues ---    0.50113   0.56665   0.56665   0.56665   0.56665
 RFO step:  Lambda=-3.80069611D-02 EMin= 2.85038086D-02
 Linear search not attempted -- first point.
 Iteration  1 RMS(Cart)=  0.04157740 RMS(Int)=  0.00000000
 Iteration  2 RMS(Cart)=  0.00000000 RMS(Int)=  0.00000000
 ITry= 1 IFail=0 DXMaxC= 1.00D-01 DCOld= 1.00D+10 DXMaxT= 3.00D-01 DXLimC= 3.00D+00 Rises=F
 ClnCor:  largest displacement from symmetrization is 5.74D-13 for atom     9.
 Variable       Old X    -DE/DX   Delta X   Delta X   Delta X     New X
                                 (Linear)    (Quad)   (Total)
    R1        2.53681   0.06064   0.00000   0.10029   0.10029   2.63710
    R2        2.53681   0.06064   0.00000   0.10029   0.10029   2.63710
    R3        2.08613  -0.00968   0.00000  -0.02613  -0.02613   2.06000
    R4        2.53681   0.06064   0.00000   0.10029   0.10029   2.63710
    R5        2.08613  -0.00968   0.00000  -0.02613  -0.02613   2.06000
    R6        2.53681   0.06064   0.00000   0.10029   0.10029   2.63710
    R7        2.08613  -0.00968   0.00000  -0.02613  -0.02613   2.06000
    R8        2.53681   0.06064   0.00000   0.10029   0.10029   2.63710
    R9        2.08613  -0.00968   0.00000  -0.02613  -0.02613   2.06000
   R10        2.53681   0.06064   0.00000   0.10029   0.10029   2.63710
   R11        2.08613  -0.00968   0.00000  -0.02613  -0.02613   2.06000
   R12        2.08613  -0.00968   0.00000  -0.02613  -0.02613   2.06000
    A1        2.09440   0.00000   0.00000   0.00000   0.00000   2.09440
    A2        2.09440  -0.00000   0.00000  -0.00000  -0.00000   2.09440
    A3        2.09440  -0.00000   0.00000  -0.00000   0.00000   2.09440
    A4        2.09440  -0.00000   0.00000  -0.00000  -0.00000   2.09440
    A5        2.09440   0.00000   0.00000   0.00000   0.00000   2.09440
    A6        2.09440  -0.00000   0.00000  -0.00000   0.00000   2.09440
    A7        2.09440  -0.00000   0.00000  -0.00000   0.00000   2.09440
    A8        2.09440   0.00000   0.00000   0.00000  -0.00000   2.09440
    A9        2.09440   0.00000   0.00000   0.00000   0.00000   2.09440
   A10        2.09440   0.00000   0.00000   0.00000   0.00000   2.09440
   A11        2.09440  -0.00000   0.00000  -0.00000   0.00000   2.09440
   A12        2.09440  -0.00000   0.00000  -0.00000  -0.00000   2.09440
   A13        2.09440  -0.00000   0.00000  -0.00000  -0.00000   2.09440
   A14        2.09440   0.00000   0.00000   0.00000   0.00000   2.09440
   A15        2.09440   0.00000   0.00000   0.00000   0.00000   2.09440
   A16        2.09440  -0.00000   0.00000  -0.00000   0.00000   2.09440
   A17        2.09440   0.00000   0.00000   0.00000   0.00000   2.09440
   A18        2.09440   0.00000   0.00000   0.00000   0.00000   2.09440
    D1        0.00000  -0.00000   0.00000  -0.00000  -0.00000   0.00000
    D2        3.14159  -0.00000   0.00000  -0.00000   0.00000   3.14159
    D3        3.14159  -0.00000   0.00000   0.00000   0.00000   3.14159
    D4        0.00000  -0.00000   0.00000  -0.00000   0.00000   0.00000
    D5        0.00000   0.00000   0.00000   0.00000   0.00000   0.00000
    D6        3.14159   0.00000   0.00000   0.00000   0.00000   3.14159
    D7        3.14159  -0.00000   0.00000  -0.00000   0.00000   3.14159
    D8       -0.00000   0.00000   0.00000  -0.00000   0.00000   0.00000
    D9       -0.00000   0.00000   0.00000   0.00000   0.00000   0.00000
   D10        3.14159   0.00000   0.00000   0.00000   0.00000   3.14159
   D11        3.14159   0.00000   0.00000   0.00000   0.00000   3.14159
   D12       -0.00000   0.00000   0.00000   0.00000   0.00000   0.00000
   D13        0.00000  -0.00000   0.00000  -0.00000  -0.00000   0.00000
   D14        3.14159  -0.00000   0.00000  -0.00000   0.00000   3.14159
   D15        3.14159   0.00000   0.00000   0.00000   0.00000   3.14159
   D16       -0.00000  -0.00000   0.00000  -0.00000   0.00000   0.00000
   D17       -0.00000  -0.00000   0.00000  -0.00000   0.00000   0.00000
   D18        3.14159   0.00000   0.00000   0.00000   0.00000   3.14159
   D19        3.14159   0.00000   0.00000   0.00000   0.00000   3.14159
   D20       -0.00000   0.00000   0.00000   0.00000   0.00000   0.00000
   D21        0.00000  -0.00000   0.00000   0.00000  -0.00000   0.00000
   D22        3.14159  -0.00000   0.00000  -0.00000   0.00000   3.14159
   D23        3.14159  -0.00000   0.00000  -0.00000   0.00000   3.14159
   D24        0.00000  -0.00000   0.00000  -0.00000   0.00000   0.00000
         Item               Value     Threshold  Converged?
 Maximum Force            0.060641     0.000450     NO 
 RMS     Force            0.020469     0.000300     NO 
 Maximum Displacement     0.100289     0.001800     NO 
 RMS     Displacement     0.041577     0.001200     NO 
 Predicted change in Energy=-2.022812D-02
 Lowest energy point so far.  Saving SCF results.
 GradGradGradGradGradGradGradGradGradGradGradGradGradGradGradGradGradGrad

 Leave Link  103 at Sun Apr 14 12:57:47 2024, MaxMem=  1073741824 cpu:               0.0 elap:               0.0
 (Enter /usr/local/g16/l202.exe)
                          Input orientation:                          
 ---------------------------------------------------------------------
 Center     Atomic      Atomic             Coordinates (Angstroms)
 Number     Number       Type             X           Y           Z
 ---------------------------------------------------------------------
      1          6           0       -0.045961   -0.000000   -0.026535
      2          6           0       -0.045961   -0.000000    1.368959
      3          6           0        1.162573   -0.000000    2.066706
      4          6           0        2.371106    0.000000    1.368959
      5          6           0        2.371106    0.000000   -0.026535
      6          6           0        1.162573    0.000000   -0.724282
      7          1           0        1.162573    0.000000   -1.814388
      8          1           0        3.315166    0.000000   -0.571588
      9          1           0        3.315166    0.000000    1.914012
     10          1           0        1.162573   -0.000000    3.156812
     11          1           0       -0.990020   -0.000000    1.914012
     12          1           0       -0.990020   -0.000000   -0.571588
 ---------------------------------------------------------------------
                    Distance matrix (angstroms):
                    1          2          3          4          5
     1  C    0.000000
     2  C    1.395494   0.000000
     3  C    2.417067   1.395494   0.000000
     4  C    2.790989   2.417067   1.395494   0.000000
     5  C    2.417067   2.790989   2.417067   1.395494   0.000000
     6  C    1.395494   2.417067   2.790989   2.417067   1.395494
     7  H    2.158002   3.405034   3.881094   3.405034   2.158002
     8  H    3.405034   3.881094   3.405034   2.158002   1.090106
     9  H    3.881094   3.405034   2.158002   1.090106   2.158002
    10  H    3.405034   2.158002   1.090106   2.158002   3.405034
    11  H    2.158002   1.090106   2.158002   3.405034   3.881094
    12  H    1.090106   2.158002   3.405034   3.881094   3.405034
                    6          7          8          9         10
     6  C    0.000000
     7  H    1.090106   0.000000
     8  H    2.158002   2.485600   0.000000
     9  H    3.405034   4.305186   2.485600   0.000000
    10  H    3.881094   4.971200   4.305186   2.485600   0.000000
    11  H    3.405034   4.305186   4.971200   4.305186   2.485600
    12  H    2.158002   2.485600   4.305186   4.971200   4.305186
                   11         12
    11  H    0.000000
    12  H    2.485600   0.000000
 Stoichiometry    C6H6
 Framework group  D6H[3C2'(HC.CH)]
 Deg. of freedom     2
 Full point group                 D6H     NOp  24
 RotChk:  IX=0 Diff= 4.00D-16
 Largest Abelian subgroup         D2H     NOp   8
 Largest concise Abelian subgroup D2      NOp   4
                         Standard orientation:                         
 ---------------------------------------------------------------------
 Center     Atomic      Atomic             Coordinates (Angstroms)
 Number     Number       Type             X           Y           Z
 ---------------------------------------------------------------------
      1          6           0       -0.000000    1.395494   -0.000000
      2          6           0        1.208534    0.697747   -0.000000
      3          6           0        1.208534   -0.697747   -0.000000
      4          6           0       -0.000000   -1.395494    0.000000
      5          6           0       -1.208534   -0.697747   -0.000000
      6          6           0       -1.208534    0.697747   -0.000000
      7          1           0       -2.152593    1.242800   -0.000000
      8          1           0       -2.152593   -1.242800   -0.000000
      9          1           0       -0.000000   -2.485600    0.000000
     10          1           0        2.152593   -1.242800    0.000000
     11          1           0        2.152593    1.242800    0.000000
     12          1           0        0.000000    2.485600   -0.000000
 ---------------------------------------------------------------------
 Rotational constants (GHZ):           5.6920887           5.6920887           2.8460444
 Leave Link  202 at Sun Apr 14 12:57:47 2024, MaxMem=  1073741824 cpu:               0.0 elap:               0.0
 (Enter /usr/local/g16/l301.exe)
 Standard basis: 6-31G(d) (6D, 7F)
 Ernie: Thresh=  0.10000D-02 Tol=  0.10000D-05 Strict=F.
 There are    23 symmetry adapted cartesian basis functions of AG  symmetry.
 There are    16 symmetry adapted cartesian basis functions of B1G symmetry.
 There are     5 symmetry adapted cartesian basis functions of B2G symmetry.
 There are     7 symmetry adapted cartesian basis functions of B3G symmetry.
 There are     5 symmetry adapted cartesian basis functions of AU  symmetry.
 There are     7 symmetry adapted cartesian basis functions of B1U symmetry.
 There are    23 symmetry adapted cartesian basis functions of B2U symmetry.
 There are    16 symmetry adapted cartesian basis functions of B3U symmetry.
 There are    23 symmetry adapted basis functions of AG  symmetry.
 There are    16 symmetry adapted basis functions of B1G symmetry.
 There are     5 symmetry adapted basis functions of B2G symmetry.
 There are     7 symmetry adapted basis functions of B3G symmetry.
 There are     5 symmetry adapted basis functions of AU  symmetry.
 There are     7 symmetry adapted basis functions of B1U symmetry.
 There are    23 symmetry adapted basis functions of B2U symmetry.
 There are    16 symmetry adapted basis functions of B3U symmetry.
   102 basis functions,   192 primitive gaussians,   102 cartesian basis functions
    21 alpha electrons       21 beta electrons
       nuclear repulsion energy       203.2383393656 Hartrees.
 IExCor=  402 DFT=T Ex+Corr=B3LYP ExCW=0 ScaHFX=  0.200000
 ScaDFX=  0.800000  0.720000  1.000000  0.810000 ScalE2=  1.000000  1.000000
 IRadAn=      5 IRanWt=     -1 IRanGd=            0 ICorTp=0 IEmpDi=  4
 NAtoms=   12 NActive=   12 NUniq=    2 SFac= 4.00D+00 NAtFMM=   60 NAOKFM=F Big=F
 Integral buffers will be    131072 words long.
 Raffenetti 2 integral format.
 Two-electron integral symmetry is turned on.
 Leave Link  301 at Sun Apr 14 12:57:47 2024, MaxMem=  1073741824 cpu:               0.1 elap:               0.0
 (Enter /usr/local/g16/l302.exe)
 NPDir=0 NMtPBC=     1 NCelOv=     1 NCel=       1 NClECP=     1 NCelD=      1
         NCelK=      1 NCelE2=     1 NClLst=     1 CellRange=     0.0.
 One-electron integrals computed using PRISM.
 One-electron integral symmetry used in STVInt
 NBasis=   102 RedAO= T EigKep=  5.18D-04  NBF=    23    16     5     7     5     7    23    16
 NBsUse=   102 1.00D-06 EigRej= -1.00D+00 NBFU=    23    16     5     7     5     7    23    16
 Precomputing XC quadrature grid using
 IXCGrd= 4 IRadAn=           5 IRanWt=          -1 IRanGd=           0 AccXCQ= 0.00D+00.
 Generated NRdTot=       0 NPtTot=           0 NUsed=           0 NTot=          32
 NSgBfM=   102   102   102   102   102 MxSgAt=    12 MxSgA2=    12.
 Leave Link  302 at Sun Apr 14 12:57:48 2024, MaxMem=  1073741824 cpu:               0.2 elap:               0.1
 (Enter /usr/local/g16/l303.exe)
 DipDrv:  MaxL=1.
 Leave Link  303 at Sun Apr 14 12:57:48 2024, MaxMem=  1073741824 cpu:               0.0 elap:               0.0
 (Enter /usr/local/g16/l401.exe)
 Initial guess from the checkpoint file:  "benzene-opt.chk"
 B after Tr=    -0.000000   -0.000000    0.000000
         Rot=    1.000000   -0.000000   -0.000000    0.000000 Ang=   0.00 deg.
 Guess basis will be translated and rotated to current coordinates.
 JPrj=2 DoOrth=T DoCkMO=T.
 Initial guess orbital symmetries:
       Occupied  (A1G) (E1U) (E1U) (E2G) (E2G) (B1U) (A1G) (E1U)
                 (E1U) (E2G) (E2G) (A1G) (B2U) (B1U) (E1U) (E1U)
                 (A2U) (E2G) (E2G) (E1G) (E1G)
       Virtual   (E2U) (E2U) (A1G) (E1U) (E1U) (E2G) (E2G) (B2G)
                 (B1U) (E2G) (E2G) (E1U) (E1U) (B2U) (A2U) (A1G)
                 (E1G) (E1G) (A1G) (B1U) (A2G) (E2G) (E2G) (E1U)
                 (E1U) (E2U) (E2U) (B2G) (E2G) (E2G) (E1U) (E1U)
                 (B1U) (A1G) (E1U) (E1U) (A2G) (E2G) (E2G) (E1U)
                 (E1U) (B1U) (B1G) (A2U) (E2G) (E2G) (E2U) (E2U)
                 (E1G) (E1G) (A1G) (B2U) (A1G) (B1U) (E1U) (E1U)
                 (E2G) (E2G) (E2U) (E2U) (E1U) (E1U) (E1G) (E1G)
                 (B2G) (E2G) (E2G) (A1U) (B1U) (E1U) (E1U) (E2G)
                 (E2G) (A2G) (B1U) (E1U) (E1U) (A1G) (E2G) (E2G)
                 (B1U)
 The electronic state of the initial guess is 1-A1G.
 Generating alternative initial guess.
 ExpMin= 1.61D-01 ExpMax= 3.05D+03 ExpMxC= 4.57D+02 IAcc=3 IRadAn=         5 AccDes= 0.00D+00
 Harris functional with IExCor=  402 and IRadAn=       5 diagonalized for initial guess.
 HarFok:  IExCor=  402 AccDes= 0.00D+00 IRadAn=         5 IDoV= 1 UseB2=F ITyADJ=14
 ICtDFT=  3500011 ScaDFX=  1.000000  1.000000  1.000000  1.000000
 FoFCou: FMM=F IPFlag=           0 FMFlag=      100000 FMFlg1=           0
         NFxFlg=           0 DoJE=T BraDBF=F KetDBF=T FulRan=T
         wScrn=  0.000000 ICntrl=       500 IOpCl=  0 I1Cent=   200000004 NGrid=           0
         NMat0=    1 NMatS0=      1 NMatT0=    0 NMatD0=    1 NMtDS0=    0 NMtDT0=    0
 Petite list used in FoFCou.
 Harris En= -232.276982390360    
 Leave Link  401 at Sun Apr 14 12:57:48 2024, MaxMem=  1073741824 cpu:               0.3 elap:               0.2
 (Enter /usr/local/g16/l502.exe)
 Keep R1 ints in memory in symmetry-blocked form, NReq=15691207.
 FoFCou: FMM=F IPFlag=           0 FMFlag=           0 FMFlg1=           0
         NFxFlg=           0 DoJE=F BraDBF=F KetDBF=F FulRan=T
         wScrn=  0.000000 ICntrl=       600 IOpCl=  0 I1Cent=           0 NGrid=           0
         NMat0=    1 NMatS0=   5253 NMatT0=    0 NMatD0=    1 NMtDS0=    0 NMtDT0=    0
 Petite list used in FoFCou.
 Closed shell SCF:
 Using DIIS extrapolation, IDIIS=  1040.
 NGot=  1073741824 LenX=  1071828403 LenY=  1071817558
 Requested convergence on RMS density matrix=1.00D-08 within 128 cycles.
 Requested convergence on MAX density matrix=1.00D-06.
 Requested convergence on             energy=1.00D-06.
 No special actions if energy rises.
 Integral accuracy reduced to 1.0D-05 until final iterations.

 Cycle   1  Pass 0  IDiag  1:
 E= -232.244122789887    
 DIIS: error= 6.93D-03 at cycle   1 NSaved=   1.
 NSaved= 1 IEnMin= 1 EnMin= -232.244122789887     IErMin= 1 ErrMin= 6.93D-03
 ErrMax= 6.93D-03  0.00D+00 EMaxC= 1.00D-01 BMatC= 3.29D-03 BMatP= 3.29D-03
 IDIUse=3 WtCom= 9.31D-01 WtEn= 6.93D-02
 Coeff-Com:  0.100D+01
 Coeff-En:   0.100D+01
 Coeff:      0.100D+01
 Gap=     0.252 Goal=   None    Shift=    0.000
 GapD=    0.252 DampG=1.000 DampE=1.000 DampFc=1.0000 IDamp=-1.
 RMSDP=1.01D-03 MaxDP=1.09D-02              OVMax= 1.76D-02

 Cycle   2  Pass 0  IDiag  1:
 E= -232.247927650491     Delta-E=       -0.003804860604 Rises=F Damp=F
 DIIS: error= 2.79D-03 at cycle   2 NSaved=   2.
 NSaved= 2 IEnMin= 2 EnMin= -232.247927650491     IErMin= 2 ErrMin= 2.79D-03
 ErrMax= 2.79D-03  0.00D+00 EMaxC= 1.00D-01 BMatC= 6.97D-04 BMatP= 3.29D-03
 IDIUse=3 WtCom= 9.72D-01 WtEn= 2.79D-02
 Coeff-Com:  0.261D+00 0.739D+00
 Coeff-En:   0.000D+00 0.100D+01
 Coeff:      0.253D+00 0.747D+00
 Gap=     0.251 Goal=   None    Shift=    0.000
 RMSDP=4.11D-04 MaxDP=4.72D-03 DE=-3.80D-03 OVMax= 8.52D-03

 Cycle   3  Pass 0  IDiag  1:
 E= -232.248406190816     Delta-E=       -0.000478540325 Rises=F Damp=F
 DIIS: error= 1.42D-03 at cycle   3 NSaved=   3.
 NSaved= 3 IEnMin= 3 EnMin= -232.248406190816     IErMin= 3 ErrMin= 1.42D-03
 ErrMax= 1.42D-03  0.00D+00 EMaxC= 1.00D-01 BMatC= 1.96D-04 BMatP= 6.97D-04
 IDIUse=3 WtCom= 9.86D-01 WtEn= 1.42D-02
 Coeff-Com: -0.521D-02 0.343D+00 0.662D+00
 Coeff-En:   0.000D+00 0.219D+00 0.781D+00
 Coeff:     -0.513D-02 0.341D+00 0.664D+00
 Gap=     0.250 Goal=   None    Shift=    0.000
 RMSDP=1.77D-04 MaxDP=2.12D-03 DE=-4.79D-04 OVMax= 3.53D-03

 Cycle   4  Pass 0  IDiag  1:
 E= -232.248616633550     Delta-E=       -0.000210442734 Rises=F Damp=F
 DIIS: error= 6.68D-05 at cycle   4 NSaved=   4.
 NSaved= 4 IEnMin= 4 EnMin= -232.248616633550     IErMin= 4 ErrMin= 6.68D-05
 ErrMax= 6.68D-05  0.00D+00 EMaxC= 1.00D-01 BMatC= 4.75D-07 BMatP= 1.96D-04
 IDIUse=1 WtCom= 1.00D+00 WtEn= 0.00D+00
 Coeff-Com: -0.213D-02 0.554D-03 0.511D-01 0.950D+00
 Coeff:     -0.213D-02 0.554D-03 0.511D-01 0.950D+00
 Gap=     0.250 Goal=   None    Shift=    0.000
 RMSDP=1.02D-05 MaxDP=1.06D-04 DE=-2.10D-04 OVMax= 1.67D-04

 Cycle   5  Pass 0  IDiag  1:
 E= -232.248617172370     Delta-E=       -0.000000538820 Rises=F Damp=F
 DIIS: error= 1.28D-06 at cycle   5 NSaved=   5.
 NSaved= 5 IEnMin= 5 EnMin= -232.248617172370     IErMin= 5 ErrMin= 1.28D-06
 ErrMax= 1.28D-06  0.00D+00 EMaxC= 1.00D-01 BMatC= 6.84D-11 BMatP= 4.75D-07
 IDIUse=1 WtCom= 1.00D+00 WtEn= 0.00D+00
 Coeff-Com: -0.559D-04-0.457D-03-0.273D-03 0.151D-01 0.986D+00
 Coeff:     -0.559D-04-0.457D-03-0.273D-03 0.151D-01 0.986D+00
 Gap=     0.250 Goal=   None    Shift=    0.000
 RMSDP=1.14D-07 MaxDP=1.23D-06 DE=-5.39D-07 OVMax= 3.46D-06

 Initial convergence to 1.0D-05 achieved.  Increase integral accuracy.
 Cycle   6  Pass 1  IDiag  1:
 E= -232.248605370050     Delta-E=        0.000011802320 Rises=F Damp=F
 DIIS: error= 9.68D-06 at cycle   1 NSaved=   1.
 NSaved= 1 IEnMin= 1 EnMin= -232.248605370050     IErMin= 1 ErrMin= 9.68D-06
 ErrMax= 9.68D-06  0.00D+00 EMaxC= 1.00D-01 BMatC= 7.29D-10 BMatP= 7.29D-10
 IDIUse=1 WtCom= 1.00D+00 WtEn= 0.00D+00
 Coeff-Com:  0.100D+01
 Coeff:      0.100D+01
 Gap=     0.250 Goal=   None    Shift=    0.000
 RMSDP=1.14D-07 MaxDP=1.23D-06 DE= 1.18D-05 OVMax= 2.21D-05

 Cycle   7  Pass 1  IDiag  1:
 E= -232.248605371505     Delta-E=       -0.000000001455 Rises=F Damp=F
 DIIS: error= 4.58D-07 at cycle   2 NSaved=   2.
 NSaved= 2 IEnMin= 2 EnMin= -232.248605371505     IErMin= 2 ErrMin= 4.58D-07
 ErrMax= 4.58D-07  0.00D+00 EMaxC= 1.00D-01 BMatC= 5.05D-12 BMatP= 7.29D-10
 IDIUse=1 WtCom= 1.00D+00 WtEn= 0.00D+00
 Coeff-Com: -0.308D-01 0.103D+01
 Coeff:     -0.308D-01 0.103D+01
 Gap=     0.250 Goal=   None    Shift=    0.000
 RMSDP=4.32D-08 MaxDP=3.27D-07 DE=-1.46D-09 OVMax= 1.21D-06

 Cycle   8  Pass 1  IDiag  1:
 E= -232.248605371509     Delta-E=       -0.000000000004 Rises=F Damp=F
 DIIS: error= 1.89D-07 at cycle   3 NSaved=   3.
 NSaved= 3 IEnMin= 3 EnMin= -232.248605371509     IErMin= 3 ErrMin= 1.89D-07
 ErrMax= 1.89D-07  0.00D+00 EMaxC= 1.00D-01 BMatC= 2.01D-12 BMatP= 5.05D-12
 IDIUse=1 WtCom= 1.00D+00 WtEn= 0.00D+00
 Coeff-Com: -0.180D-01 0.411D+00 0.607D+00
 Coeff:     -0.180D-01 0.411D+00 0.607D+00
 Gap=     0.250 Goal=   None    Shift=    0.000
 RMSDP=1.78D-08 MaxDP=1.51D-07 DE=-3.87D-12 OVMax= 3.69D-07

 Cycle   9  Pass 1  IDiag  1:
 E= -232.248605371510     Delta-E=       -0.000000000001 Rises=F Damp=F
 DIIS: error= 3.60D-08 at cycle   4 NSaved=   4.
 NSaved= 4 IEnMin= 4 EnMin= -232.248605371510     IErMin= 4 ErrMin= 3.60D-08
 ErrMax= 3.60D-08  0.00D+00 EMaxC= 1.00D-01 BMatC= 9.09D-14 BMatP= 2.01D-12
 IDIUse=1 WtCom= 1.00D+00 WtEn= 0.00D+00
 Coeff-Com: -0.663D-02 0.137D+00 0.266D+00 0.604D+00
 Coeff:     -0.663D-02 0.137D+00 0.266D+00 0.604D+00
 Gap=     0.250 Goal=   None    Shift=    0.000
 RMSDP=3.57D-09 MaxDP=4.60D-08 DE=-1.19D-12 OVMax= 6.65D-08

 SCF Done:  E(RB3LYP) =  -232.248605372     A.U. after    9 cycles
            NFock=  9  Conv=0.36D-08     -V/T= 2.0101
 KE= 2.299173599591D+02 PE=-9.438068657589D+02 EE= 2.784025610626D+02
 Leave Link  502 at Sun Apr 14 12:57:49 2024, MaxMem=  1073741824 cpu:               1.8 elap:               0.9
 (Enter /usr/local/g16/l701.exe)
 ... and contract with generalized density number  0.
 Compute integral first derivatives.
 Leave Link  701 at Sun Apr 14 12:57:49 2024, MaxMem=  1073741824 cpu:               0.1 elap:               0.1
 (Enter /usr/local/g16/l702.exe)
 L702 exits ... SP integral derivatives will be done elsewhere.
 Leave Link  702 at Sun Apr 14 12:57:49 2024, MaxMem=  1073741824 cpu:               0.0 elap:               0.0
 (Enter /usr/local/g16/l703.exe)
 Integral derivatives from FoFJK, PRISM(SPDF).
 Compute integral first derivatives, UseDBF=F ICtDFT=           0.
 Calling FoFJK, ICntrl=      2127 FMM=F ISym2X=1 I1Cent= 0 IOpClX= 0 NMat=1 NMatS=1 NMatT=0.
 FoFJK:  IHMeth= 1 ICntrl=    2127 DoSepK=F KAlg= 0 I1Cent=           0 FoldK=F
 IRaf=         0 NMat=       1 IRICut=       1 DoRegI=T DoRafI=F ISym2E= 1 IDoP0=0 IntGTp=1.
 FoFCou: FMM=F IPFlag=           0 FMFlag=      100000 FMFlg1=         800
         NFxFlg=           0 DoJE=F BraDBF=F KetDBF=F FulRan=T
         wScrn=  0.000000 ICntrl=      2127 IOpCl=  0 I1Cent=           0 NGrid=           0
         NMat0=    1 NMatS0=      1 NMatT0=    0 NMatD0=    1 NMtDS0=    0 NMtDT0=    0
 Petite list used in FoFCou.
 Leave Link  703 at Sun Apr 14 12:57:49 2024, MaxMem=  1073741824 cpu:               0.7 elap:               0.3
 (Enter /usr/local/g16/l716.exe)
 Dipole        = 4.88498131D-15 8.88178420D-16 2.13821060D-17
 ***** Axes restored to original set *****
 -------------------------------------------------------------------
 Center     Atomic                   Forces (Hartrees/Bohr)
 Number     Number              X              Y              Z
 -------------------------------------------------------------------
      1        6          -0.002689110   -0.000000000   -0.001552558
      2        6          -0.002689110   -0.000000000    0.001552558
      3        6          -0.000000000   -0.000000000    0.003105116
      4        6           0.002689110    0.000000000    0.001552558
      5        6           0.002689110    0.000000000   -0.001552558
      6        6          -0.000000000   -0.000000000   -0.003105116
      7        1           0.000000000   -0.000000000    0.002068433
      8        1          -0.001791315   -0.000000000    0.001034216
      9        1          -0.001791315    0.000000000   -0.001034216
     10        1           0.000000000    0.000000000   -0.002068433
     11        1           0.001791315    0.000000000   -0.001034216
     12        1           0.001791315   -0.000000000    0.001034216
 -------------------------------------------------------------------
 Cartesian Forces:  Max     0.003105116 RMS     0.001523164
 Leave Link  716 at Sun Apr 14 12:57:49 2024, MaxMem=  1073741824 cpu:               0.0 elap:               0.0
 (Enter /usr/local/g16/l103.exe)

 GradGradGradGradGradGradGradGradGradGradGradGradGradGradGradGradGradGrad
 Berny optimization.
 Using GEDIIS/GDIIS optimizer.
 FormGI is forming the generalized inverse of G from B-inverse, IUseBI=4.
 Internal  Forces:  Max     0.002068433 RMS     0.000771228
 Search for a local minimum.
 Step number   2 out of a maximum of   64
 All quantities printed in internal units (Hartrees-Bohrs-Radians)
 RMS Force = .77123D-03 SwitMx=.10000D-02 MixMth= 2
 Mixed Optimization -- En-DIIS/RFO-DIIS
 Update second derivatives using D2CorX and points    1    2
 DE= -1.87D-02 DEPred=-2.02D-02 R= 9.23D-01
 TightC=F SS=  1.41D+00  RLast= 2.54D-01 DXNew= 5.0454D-01 7.6157D-01
 Trust test= 9.23D-01 RLast= 2.54D-01 DXMaxT set to 5.05D-01
 ITU=  1  0
 Use linear search instead of GDIIS.
     Eigenvalues ---    0.02850   0.02850   0.02850   0.02850   0.02850
     Eigenvalues ---    0.02850   0.02850   0.02850   0.02850   0.16000
     Eigenvalues ---    0.16000   0.16000   0.16000   0.16000   0.16000
     Eigenvalues ---    0.22000   0.22000   0.22000   0.32880   0.33251
     Eigenvalues ---    0.33251   0.33251   0.33251   0.33251   0.50515
     Eigenvalues ---    0.50515   0.56665   0.56665   0.56665   0.59725
 RFO step:  Lambda=-6.79103344D-05 EMin= 2.85038086D-02
 Quartic linear search produced a step of  0.02949.
 Iteration  1 RMS(Cart)=  0.00161505 RMS(Int)=  0.00000000
 Iteration  2 RMS(Cart)=  0.00000000 RMS(Int)=  0.00000000
 ITry= 1 IFail=0 DXMaxC= 4.31D-03 DCOld= 1.00D+10 DXMaxT= 5.05D-01 DXLimC= 3.00D+00 Rises=F
 ClnCor:  largest displacement from symmetrization is 4.21D-13 for atom    12.
 Variable       Old X    -DE/DX   Delta X   Delta X   Delta X     New X
                                 (Linear)    (Quad)   (Total)
    R1        2.63710   0.00104   0.00296  -0.00074   0.00222   2.63932
    R2        2.63710   0.00104   0.00296  -0.00074   0.00222   2.63932
    R3        2.06000  -0.00207  -0.00077  -0.00576  -0.00653   2.05347
    R4        2.63710   0.00104   0.00296  -0.00074   0.00222   2.63932
    R5        2.06000  -0.00207  -0.00077  -0.00576  -0.00653   2.05347
    R6        2.63710   0.00104   0.00296  -0.00074   0.00222   2.63932
    R7        2.06000  -0.00207  -0.00077  -0.00576  -0.00653   2.05347
    R8        2.63710   0.00104   0.00296  -0.00074   0.00222   2.63932
    R9        2.06000  -0.00207  -0.00077  -0.00576  -0.00653   2.05347
   R10        2.63710   0.00104   0.00296  -0.00074   0.00222   2.63932
   R11        2.06000  -0.00207  -0.00077  -0.00576  -0.00653   2.05347
   R12        2.06000  -0.00207  -0.00077  -0.00576  -0.00653   2.05347
    A1        2.09440  -0.00000   0.00000  -0.00000   0.00000   2.09440
    A2        2.09440   0.00000  -0.00000   0.00000   0.00000   2.09440
    A3        2.09440  -0.00000   0.00000  -0.00000   0.00000   2.09440
    A4        2.09440   0.00000  -0.00000   0.00000   0.00000   2.09440
    A5        2.09440   0.00000   0.00000   0.00000  -0.00000   2.09440
    A6        2.09440  -0.00000   0.00000  -0.00000   0.00000   2.09440
    A7        2.09440   0.00000  -0.00000   0.00000   0.00000   2.09440
    A8        2.09440   0.00000   0.00000   0.00000   0.00000   2.09440
    A9        2.09440  -0.00000   0.00000  -0.00000  -0.00000   2.09440
   A10        2.09440  -0.00000   0.00000  -0.00000  -0.00000   2.09440
   A11        2.09440  -0.00000   0.00000  -0.00000  -0.00000   2.09440
   A12        2.09440   0.00000  -0.00000   0.00000   0.00000   2.09440
   A13        2.09440   0.00000  -0.00000   0.00000   0.00000   2.09440
   A14        2.09440   0.00000   0.00000   0.00000  -0.00000   2.09440
   A15        2.09440  -0.00000   0.00000  -0.00000  -0.00000   2.09440
   A16        2.09440   0.00000   0.00000   0.00000   0.00000   2.09440
   A17        2.09440  -0.00000   0.00000   0.00000   0.00000   2.09440
   A18        2.09440  -0.00000   0.00000  -0.00000   0.00000   2.09440
    D1        0.00000  -0.00000   0.00000  -0.00000   0.00000   0.00000
    D2        3.14159  -0.00000   0.00000  -0.00000   0.00000   3.14159
    D3        3.14159  -0.00000   0.00000  -0.00000   0.00000   3.14159
    D4        0.00000  -0.00000   0.00000  -0.00000   0.00000   0.00000
    D5        0.00000   0.00000   0.00000   0.00000  -0.00000   0.00000
    D6        3.14159   0.00000   0.00000   0.00000   0.00000   3.14159
    D7        3.14159  -0.00000   0.00000  -0.00000   0.00000   3.14159
    D8       -0.00000   0.00000   0.00000   0.00000   0.00000   0.00000
    D9       -0.00000   0.00000   0.00000   0.00000   0.00000   0.00000
   D10        3.14159   0.00000   0.00000   0.00000   0.00000   3.14159
   D11        3.14159   0.00000   0.00000   0.00000   0.00000   3.14159
   D12       -0.00000   0.00000   0.00000   0.00000   0.00000   0.00000
   D13       -0.00000  -0.00000   0.00000  -0.00000   0.00000   0.00000
   D14        3.14159  -0.00000   0.00000  -0.00000   0.00000   3.14159
   D15        3.14159   0.00000   0.00000   0.00000   0.00000   3.14159
   D16        0.00000   0.00000   0.00000   0.00000  -0.00000   0.00000
   D17        0.00000   0.00000   0.00000  -0.00000   0.00000   0.00000
   D18        3.14159   0.00000   0.00000   0.00000   0.00000   3.14159
   D19        3.14159   0.00000   0.00000   0.00000   0.00000   3.14159
   D20       -0.00000   0.00000   0.00000   0.00000   0.00000   0.00000
   D21       -0.00000  -0.00000   0.00000  -0.00000   0.00000   0.00000
   D22        3.14159  -0.00000   0.00000  -0.00000   0.00000   3.14159
   D23        3.14159  -0.00000   0.00000  -0.00000   0.00000   3.14159
   D24        0.00000  -0.00000   0.00000  -0.00000   0.00000   0.00000
         Item               Value     Threshold  Converged?
 Maximum Force            0.002068     0.000450     NO 
 RMS     Force            0.000771     0.000300     NO 
 Maximum Displacement     0.004306     0.001800     NO 
 RMS     Displacement     0.001615     0.001200     NO 
 Predicted change in Energy=-4.477311D-05
 Lowest energy point so far.  Saving SCF results.
 GradGradGradGradGradGradGradGradGradGradGradGradGradGradGradGradGradGrad

 Leave Link  103 at Sun Apr 14 12:57:49 2024, MaxMem=  1073741824 cpu:               0.0 elap:               0.0
 (Enter /usr/local/g16/l202.exe)
                          Input orientation:                          
 ---------------------------------------------------------------------
 Center     Atomic      Atomic             Coordinates (Angstroms)
 Number     Number       Type             X           Y           Z
 ---------------------------------------------------------------------
      1          6           0       -0.046979   -0.000000   -0.027123
      2          6           0       -0.046979   -0.000000    1.369547
      3          6           0        1.162573   -0.000000    2.067882
      4          6           0        2.372125    0.000000    1.369547
      5          6           0        2.372125    0.000000   -0.027123
      6          6           0        1.162573    0.000000   -0.725458
      7          1           0        1.162573    0.000000   -1.812110
      8          1           0        3.313193    0.000000   -0.570449
      9          1           0        3.313193    0.000000    1.912873
     10          1           0        1.162573   -0.000000    3.154534
     11          1           0       -0.988047   -0.000000    1.912873
     12          1           0       -0.988047   -0.000000   -0.570449
 ---------------------------------------------------------------------
                    Distance matrix (angstroms):
                    1          2          3          4          5
     1  C    0.000000
     2  C    1.396670   0.000000
     3  C    2.419103   1.396670   0.000000
     4  C    2.793340   2.419103   1.396670   0.000000
     5  C    2.419103   2.793340   2.419103   1.396670   0.000000
     6  C    1.396670   2.419103   2.793340   2.419103   1.396670
     7  H    2.156199   3.403815   3.879992   3.403815   2.156199
     8  H    3.403815   3.879992   3.403815   2.156199   1.086652
     9  H    3.879992   3.403815   2.156199   1.086652   2.156199
    10  H    3.403815   2.156199   1.086652   2.156199   3.403815
    11  H    2.156199   1.086652   2.156199   3.403815   3.879992
    12  H    1.086652   2.156199   3.403815   3.879992   3.403815
                    6          7          8          9         10
     6  C    0.000000
     7  H    1.086652   0.000000
     8  H    2.156199   2.483322   0.000000
     9  H    3.403815   4.301239   2.483322   0.000000
    10  H    3.879992   4.966643   4.301239   2.483322   0.000000
    11  H    3.403815   4.301239   4.966643   4.301239   2.483322
    12  H    2.156199   2.483322   4.301239   4.966643   4.301239
                   11         12
    11  H    0.000000
    12  H    2.483322   0.000000
 Stoichiometry    C6H6
 Framework group  D6H[3C2'(HC.CH)]
 Deg. of freedom     2
 Full point group                 D6H     NOp  24
 RotChk:  IX=0 Diff= 7.77D-16
 Largest Abelian subgroup         D2H     NOp   8
 Largest concise Abelian subgroup D2      NOp   4
                         Standard orientation:                         
 ---------------------------------------------------------------------
 Center     Atomic      Atomic             Coordinates (Angstroms)
 Number     Number       Type             X           Y           Z
 ---------------------------------------------------------------------
      1          6           0       -0.000000    1.396670   -0.000000
      2          6           0        1.209552    0.698335   -0.000000
      3          6           0        1.209552   -0.698335   -0.000000
      4          6           0       -0.000000   -1.396670   -0.000000
      5          6           0       -1.209552   -0.698335    0.000000
      6          6           0       -1.209552    0.698335   -0.000000
      7          1           0       -2.150620    1.241661    0.000000
      8          1           0       -2.150620   -1.241661   -0.000000
      9          1           0       -0.000000   -2.483322    0.000000
     10          1           0        2.150620   -1.241661    0.000000
     11          1           0        2.150620    1.241661    0.000000
     12          1           0        0.000000    2.483322   -0.000000
 ---------------------------------------------------------------------
 Rotational constants (GHZ):           5.6867115           5.6867115           2.8433557
 Leave Link  202 at Sun Apr 14 12:57:49 2024, MaxMem=  1073741824 cpu:               0.0 elap:               0.0
 (Enter /usr/local/g16/l301.exe)
 Standard basis: 6-31G(d) (6D, 7F)
 Ernie: Thresh=  0.10000D-02 Tol=  0.10000D-05 Strict=F.
 There are    23 symmetry adapted cartesian basis functions of AG  symmetry.
 There are    16 symmetry adapted cartesian basis functions of B1G symmetry.
 There are     5 symmetry adapted cartesian basis functions of B2G symmetry.
 There are     7 symmetry adapted cartesian basis functions of B3G symmetry.
 There are     5 symmetry adapted cartesian basis functions of AU  symmetry.
 There are     7 symmetry adapted cartesian basis functions of B1U symmetry.
 There are    23 symmetry adapted cartesian basis functions of B2U symmetry.
 There are    16 symmetry adapted cartesian basis functions of B3U symmetry.
 There are    23 symmetry adapted basis functions of AG  symmetry.
 There are    16 symmetry adapted basis functions of B1G symmetry.
 There are     5 symmetry adapted basis functions of B2G symmetry.
 There are     7 symmetry adapted basis functions of B3G symmetry.
 There are     5 symmetry adapted basis functions of AU  symmetry.
 There are     7 symmetry adapted basis functions of B1U symmetry.
 There are    23 symmetry adapted basis functions of B2U symmetry.
 There are    16 symmetry adapted basis functions of B3U symmetry.
   102 basis functions,   192 primitive gaussians,   102 cartesian basis functions
    21 alpha electrons       21 beta electrons
       nuclear repulsion energy       203.1901972085 Hartrees.
 IExCor=  402 DFT=T Ex+Corr=B3LYP ExCW=0 ScaHFX=  0.200000
 ScaDFX=  0.800000  0.720000  1.000000  0.810000 ScalE2=  1.000000  1.000000
 IRadAn=      5 IRanWt=     -1 IRanGd=            0 ICorTp=0 IEmpDi=  4
 NAtoms=   12 NActive=   12 NUniq=    2 SFac= 4.00D+00 NAtFMM=   60 NAOKFM=F Big=F
 Integral buffers will be    131072 words long.
 Raffenetti 2 integral format.
 Two-electron integral symmetry is turned on.
 Leave Link  301 at Sun Apr 14 12:57:49 2024, MaxMem=  1073741824 cpu:               0.0 elap:               0.0
 (Enter /usr/local/g16/l302.exe)
 NPDir=0 NMtPBC=     1 NCelOv=     1 NCel=       1 NClECP=     1 NCelD=      1
         NCelK=      1 NCelE2=     1 NClLst=     1 CellRange=     0.0.
 One-electron integrals computed using PRISM.
 One-electron integral symmetry used in STVInt
 NBasis=   102 RedAO= T EigKep=  5.21D-04  NBF=    23    16     5     7     5     7    23    16
 NBsUse=   102 1.00D-06 EigRej= -1.00D+00 NBFU=    23    16     5     7     5     7    23    16
 Precomputing XC quadrature grid using
 IXCGrd= 4 IRadAn=           5 IRanWt=          -1 IRanGd=           0 AccXCQ= 0.00D+00.
 Generated NRdTot=       0 NPtTot=           0 NUsed=           0 NTot=          32
 NSgBfM=   102   102   102   102   102 MxSgAt=    12 MxSgA2=    12.
 Leave Link  302 at Sun Apr 14 12:57:49 2024, MaxMem=  1073741824 cpu:               0.2 elap:               0.1
 (Enter /usr/local/g16/l303.exe)
 DipDrv:  MaxL=1.
 Leave Link  303 at Sun Apr 14 12:57:49 2024, MaxMem=  1073741824 cpu:               0.0 elap:               0.0
 (Enter /usr/local/g16/l401.exe)
 Initial guess from the checkpoint file:  "benzene-opt.chk"
 B after Tr=    -0.000000    0.000000   -0.000000
         Rot=    1.000000    0.000000    0.000000   -0.000000 Ang=   0.00 deg.
 Guess basis will be translated and rotated to current coordinates.
 JPrj=2 DoOrth=T DoCkMO=T.
 Initial guess orbital symmetries:
       Occupied  (A1G) (E1U) (E1U) (E2G) (E2G) (B1U) (A1G) (E1U)
                 (E1U) (E2G) (E2G) (A1G) (B1U) (B2U) (E1U) (E1U)
                 (A2U) (E2G) (E2G) (E1G) (E1G)
       Virtual   (E2U) (E2U) (A1G) (E1U) (E1U) (B2G) (E2G) (E2G)
                 (B1U) (E2G) (E2G) (E1U) (E1U) (B2U) (A2U) (B1U)
                 (A1G) (A2G) (A1G) (E1G) (E1G) (E2G) (E2G) (E1U)
                 (E1U) (E2U) (E2U) (B2G) (E2G) (E2G) (B1U) (E1U)
                 (E1U) (A1G) (E1U) (E1U) (A2G) (E2G) (E2G) (E1U)
                 (E1U) (B1U) (B1G) (A2U) (E2G) (E2G) (E2U) (E2U)
                 (E1G) (E1G) (A1G) (B2U) (A1G) (B1U) (E1U) (E1U)
                 (E2G) (E2G) (E2U) (E2U) (E1U) (E1U) (E1G) (E1G)
                 (B2G) (E2G) (E2G) (A1U) (E2G) (E2G) (E1U) (E1U)
                 (B1U) (A2G) (B1U) (A1G) (E1U) (E1U) (E2G) (E2G)
                 (B1U)
 The electronic state of the initial guess is 1-A1G.
 Leave Link  401 at Sun Apr 14 12:57:49 2024, MaxMem=  1073741824 cpu:               0.1 elap:               0.1
 (Enter /usr/local/g16/l502.exe)
 Keep R1 ints in memory in symmetry-blocked form, NReq=15691207.
 FoFCou: FMM=F IPFlag=           0 FMFlag=           0 FMFlg1=           0
         NFxFlg=           0 DoJE=F BraDBF=F KetDBF=F FulRan=T
         wScrn=  0.000000 ICntrl=       600 IOpCl=  0 I1Cent=           0 NGrid=           0
         NMat0=    1 NMatS0=   5253 NMatT0=    0 NMatD0=    1 NMtDS0=    0 NMtDT0=    0
 Petite list used in FoFCou.
 Closed shell SCF:
 Using DIIS extrapolation, IDIIS=  1040.
 NGot=  1073741824 LenX=  1071828403 LenY=  1071817558
 Requested convergence on RMS density matrix=1.00D-08 within 128 cycles.
 Requested convergence on MAX density matrix=1.00D-06.
 Requested convergence on             energy=1.00D-06.
 No special actions if energy rises.

 Cycle   1  Pass 1  IDiag  1:
 E= -232.248634664071    
 DIIS: error= 3.20D-04 at cycle   1 NSaved=   1.
 NSaved= 1 IEnMin= 1 EnMin= -232.248634664071     IErMin= 1 ErrMin= 3.20D-04
 ErrMax= 3.20D-04  0.00D+00 EMaxC= 1.00D-01 BMatC= 8.96D-06 BMatP= 8.96D-06
 IDIUse=3 WtCom= 9.97D-01 WtEn= 3.20D-03
[...]
  1/2[<0|del|b>*<b|r|0> + (<0|r|b>*<b|del|0>)*] (Au)
       state          X           Y           Z        Dip. S.   Osc.(frdel)
         1        -0.0000      0.0000     -0.0000      0.0000      0.0000
         2        -0.0000     -0.0000     -0.0000      0.0000      0.0000
         3        -0.0000     -0.0000      0.0000      0.0000      0.0000
         4        -0.0000     -0.0000     -0.0000      0.0000      0.0000
         5        -0.0000     -0.0000     -0.0000      0.0000      0.0000
         6        -0.0000     -0.0000     -0.0000      0.0000      0.0000
         7        -0.0000     -0.0000     -0.0000      0.0000      0.0000
         8        -0.0000     -0.0000     -0.0000      0.0000      0.0000
         9        -0.0000     -0.0000      0.0000      0.0000      0.0000
        10        -0.0000     -0.0000      0.0000      0.0000      0.0000
        11        -0.0000     -0.0000     -0.0000      0.0000      0.0000
        12        -0.0000     -0.0000      0.0000      0.0000      0.0000
        13        -0.0000     -0.0000     -0.0000      0.0000      0.0000
        14        -0.0000     -0.0000      0.0000     -0.0000     -0.0000
        15        -0.0000     -0.0000      0.0000      0.0000      0.0000
        16        -0.0000     -0.0000     -0.0015      0.0015      0.0010
        17        -0.0000     -0.0000     -0.0000      0.0000      0.0000
        18        -0.0000     -0.0000      0.0000      0.0000      0.0000
        19        -0.0000     -1.7143     -0.0000      1.7143      1.1429
        20        -1.7143     -0.0000     -0.0000      1.7143      1.1429

 Excitation energies and oscillator strengths:
 
 Excited state symmetry could not be determined.
 Excited State   1:      Triplet-?Sym    3.7978 eV  326.46 nm  f=0.0000  <S**2>=2.000
      17 -> 27        -0.11395
      20 -> 23        -0.50316
      21 -> 22         0.50316
 This state for optimization and/or second-order correction.
 Total Energy, E(TD-HF/TD-DFT) =  -232.109080469    
 Copying the excited state density for this state as the 1-particle RhoCI density.
 
 Excited state symmetry could not be determined.
 Excited State   2:      Triplet-?Sym    4.7896 eV  258.86 nm  f=0.0000  <S**2>=2.000
      20 -> 23         0.50047
      21 -> 22         0.50047
 
 Excited state symmetry could not be determined.
 Excited State   3:      Triplet-?Sym    4.7897 eV  258.86 nm  f=0.0000  <S**2>=2.000
      20 -> 22        -0.50047
      21 -> 23         0.50047
 
 Excited state symmetry could not be determined.
 Excited State   4:      Triplet-?Sym    5.2057 eV  238.17 nm  f=0.0000  <S**2>=2.000
      20 -> 22         0.50049
      21 -> 23         0.50049
 
 Excited state symmetry could not be determined.
 Excited State   5:      Singlet-?Sym    5.5430 eV  223.68 nm  f=0.0000  <S**2>=0.000
      20 -> 22         0.49980
      21 -> 23         0.49980
 
 Excited state symmetry could not be determined.
 Excited State   6:      Singlet-?Sym    6.3061 eV  196.61 nm  f=0.0000  <S**2>=0.000
      20 -> 23        -0.49833
      21 -> 22         0.49833
 
 Excited State   7:      Triplet-E2G    7.4267 eV  166.94 nm  f=0.0000  <S**2>=2.000
      17 -> 22         0.63131
      21 -> 27        -0.31858
 
 Excited State   8:      Triplet-E2G    7.4267 eV  166.94 nm  f=0.0000  <S**2>=2.000
      17 -> 23         0.63131
      20 -> 27         0.31858
 
 Excited state symmetry could not be determined.
 Excited State   9:      Triplet-?Sym    7.6353 eV  162.38 nm  f=0.0000  <S**2>=2.000
      18 -> 23         0.49814
      19 -> 22         0.49814
 
 Excited state symmetry could not be determined.
 Excited State  10:      Triplet-?Sym    7.6675 eV  161.70 nm  f=0.0000  <S**2>=2.000
      18 -> 22         0.49719
      19 -> 23         0.49718
 
 Excited state symmetry could not be determined.
 Excited State  11:      Triplet-?Sym    7.6675 eV  161.70 nm  f=0.0000  <S**2>=2.000
      18 -> 23        -0.49718
      19 -> 22         0.49718
 
 Excited state symmetry could not be determined.
 Excited State  12:      Triplet-?Sym    7.6696 eV  161.66 nm  f=0.0000  <S**2>=2.000
      18 -> 22        -0.49663
      19 -> 23         0.49664
 
 Excited state symmetry could not be determined.
 Excited State  13:      Singlet-?Sym    7.8737 eV  157.47 nm  f=0.0000  <S**2>=0.000
      18 -> 22        -0.49854
      19 -> 23         0.49854
 
 Excited state symmetry could not be determined.
 Excited State  14:      Singlet-?Sym    7.9802 eV  155.36 nm  f=0.0000  <S**2>=0.000
      18 -> 23        -0.49872
      19 -> 22         0.49872
 
 Excited state symmetry could not be determined.
 Excited State  15:      Singlet-?Sym    7.9802 eV  155.36 nm  f=0.0000  <S**2>=0.000
      18 -> 22         0.49872
      19 -> 23         0.49872
 
 Excited state symmetry could not be determined.
 Excited State  16:      Singlet-?Sym    7.9941 eV  155.10 nm  f=0.0056  <S**2>=0.000
      18 -> 23         0.49908
      19 -> 22         0.49908
 
 Excited State  17:      Singlet-E1G    8.0666 eV  153.70 nm  f=0.0000  <S**2>=0.000
      21 -> 24         0.70510
 
 Excited State  18:      Singlet-E1G    8.0666 eV  153.70 nm  f=0.0000  <S**2>=0.000
      20 -> 24         0.70510
 
 Excited state symmetry could not be determined.
 Excited State  19:      Singlet-?Sym    8.6678 eV  143.04 nm  f=1.1525  <S**2>=0.000
      20 -> 23         0.51406
      21 -> 22         0.51406
      20 <- 23        -0.12060
      21 <- 22        -0.12060
 
 Excited state symmetry could not be determined.
 Excited State  20:      Singlet-?Sym    8.6678 eV  143.04 nm  f=1.1525  <S**2>=0.000
      20 -> 22        -0.51406
      21 -> 23         0.51406
      20 <- 22         0.12060
      21 <- 23        -0.12060
 SavETr:  write IOETrn=   770 NScale= 10 NData=  16 NLR=1 NState=   20 LETran=     370.
 Leave Link  914 at Sun Apr 14 12:59:11 2024, MaxMem=  1073741824 cpu:             118.8 elap:              59.4
 (Enter /usr/local/g16/l601.exe)
 Copying SCF densities to generalized density rwf, IOpCl= 0 IROHF=0.

 **********************************************************************

            Population analysis using the SCF Density.

 **********************************************************************

 Orbital symmetries:
       Occupied  (A1G) (E1U) (E1U) (E2G) (E2G) (B1U) (A1G) (E1U)
                 (E1U) (E2G) (E2G) (A1G) (B1U) (B2U) (E1U) (E1U)
                 (A2U) (E2G) (E2G) (E1G) (E1G)
       Virtual   (E2U) (E2U) (A1G) (E1U) (E1U) (B2G) (E2G) (E2G)
                 (B1U) (E2G) (E2G) (E1U) (E1U) (B2U) (A2U) (B1U)
                 (A1G) (A2G) (A1G) (E1G) (E1G) (E2G) (E2G) (E1U)
                 (E1U) (E2U) (E2U) (B2G) (E2G) (E2G) (B1U) (E1U)
                 (E1U) (E1U) (E1U) (A1G) (A2G) (E2G) (E2G) (E1U)
                 (E1U) (B1U) (B1G) (A2U) (E2G) (E2G) (E2U) (E2U)
                 (E1G) (E1G) (A1G) (B2U) (A1G) (B1U) (E1U) (E1U)
                 (E2G) (E2G) (E2U) (E2U) (E1U) (E1U) (E1G) (E1G)
                 (B2G) (E2G) (E2G) (A1U) (E2G) (E2G) (E1U) (E1U)
                 (B1U) (A2G) (B1U) (A1G) (E1U) (E1U) (E2G) (E2G)
                 (B1U)
 The electronic state is 1-A1G.
 Alpha  occ. eigenvalues --  -10.18770 -10.18744 -10.18744 -10.18688 -10.18688
 Alpha  occ. eigenvalues --  -10.18662  -0.84629  -0.73984  -0.73984  -0.59753
 Alpha  occ. eigenvalues --   -0.59753  -0.51860  -0.45940  -0.43808  -0.41729
 Alpha  occ. eigenvalues --   -0.41729  -0.35936  -0.34030  -0.34030  -0.24627
 Alpha  occ. eigenvalues --   -0.24627
 Alpha virt. eigenvalues --    0.00362   0.00362   0.09087   0.14479   0.14479
 Alpha virt. eigenvalues --    0.16392   0.18191   0.18191   0.19036   0.30267
 Alpha virt. eigenvalues --    0.30267   0.31911   0.31911   0.47490   0.52738
 Alpha virt. eigenvalues --    0.54903   0.55027   0.56393   0.59250   0.60203
 Alpha virt. eigenvalues --    0.60203   0.60207   0.60207   0.62682   0.62682
 Alpha virt. eigenvalues --    0.66755   0.66755   0.74488   0.84026   0.84026
 Alpha virt. eigenvalues --    0.84123   0.86526   0.86526   0.93902   0.93902
 Alpha virt. eigenvalues --    0.94088   0.95798   1.08255   1.08255   1.14236
 Alpha virt. eigenvalues --    1.14236   1.20102   1.26191   1.39629   1.43653
 Alpha virt. eigenvalues --    1.43653   1.48696   1.48696   1.51540   1.51540
 Alpha virt. eigenvalues --    1.75698   1.78982   1.85764   1.89577   1.97394
 Alpha virt. eigenvalues --    1.97394   2.06597   2.06597   2.15159   2.15159
 Alpha virt. eigenvalues --    2.15436   2.15436   2.30945   2.30945   2.32155
 Alpha virt. eigenvalues --    2.54586   2.54586   2.65682   2.70551   2.70551
 Alpha virt. eigenvalues --    2.72185   2.72185   2.76020   3.01689   3.41030
 Alpha virt. eigenvalues --    4.08523   4.11781   4.11781   4.33041   4.33041
 Alpha virt. eigenvalues --    4.66594
          Condensed to atoms (all electrons):
               1          2          3          4          5          6
     1  C    4.848873   0.551464  -0.031915  -0.040910  -0.031915   0.551464
     2  C    0.551464   4.848873   0.551464  -0.031915  -0.040910  -0.031915
     3  C   -0.031915   0.551464   4.848873   0.551464  -0.031915  -0.040910
     4  C   -0.040910  -0.031915   0.551464   4.848873   0.551464  -0.031915
     5  C   -0.031915  -0.040910  -0.031915   0.551464   4.848873   0.551464
     6  C    0.551464  -0.031915  -0.040910  -0.031915   0.551464   4.848873
     7  H   -0.043804   0.004788   0.000579   0.004788  -0.043804   0.358940
     8  H    0.004788   0.000579   0.004788  -0.043804   0.358940  -0.043804
     9  H    0.000579   0.004788  -0.043804   0.358940  -0.043804   0.004788
    10  H    0.004788  -0.043804   0.358940  -0.043804   0.004788   0.000579
    11  H   -0.043804   0.358940  -0.043804   0.004788   0.000579   0.004788
    12  H    0.358940  -0.043804   0.004788   0.000579   0.004788  -0.043804
               7          8          9         10         11         12
     1  C   -0.043804   0.004788   0.000579   0.004788  -0.043804   0.358940
     2  C    0.004788   0.000579   0.004788  -0.043804   0.358940  -0.043804
     3  C    0.000579   0.004788  -0.043804   0.358940  -0.043804   0.004788
     4  C    0.004788  -0.043804   0.358940  -0.043804   0.004788   0.000579
     5  C   -0.043804   0.358940  -0.043804   0.004788   0.000579   0.004788
     6  C    0.358940  -0.043804   0.004788   0.000579   0.004788  -0.043804
     7  H    0.602064  -0.005875  -0.000182   0.000016  -0.000182  -0.005875
     8  H   -0.005875   0.602064  -0.005875  -0.000182   0.000016  -0.000182
     9  H   -0.000182  -0.005875   0.602064  -0.005875  -0.000182   0.000016
    10  H    0.000016  -0.000182  -0.005875   0.602064  -0.005875  -0.000182
    11  H   -0.000182   0.000016  -0.000182  -0.005875   0.602064  -0.005875
    12  H   -0.005875  -0.000182   0.000016  -0.000182  -0.005875   0.602064
 Mulliken charges:
               1
     1  C   -0.128548
     2  C   -0.128548
     3  C   -0.128548
     4  C   -0.128548
     5  C   -0.128548
     6  C   -0.128548
     7  H    0.128548
     8  H    0.128548
     9  H    0.128548
    10  H    0.128548
    11  H    0.128548
    12  H    0.128548
 Sum of Mulliken charges =  -0.00000
 Mulliken charges with hydrogens summed into heavy atoms:
               1
     1  C   -0.000000
     2  C   -0.000000
     3  C   -0.000000
     4  C   -0.000000
     5  C   -0.000000
     6  C   -0.000000
 Electronic spatial extent (au):  <R**2>=            458.3003
 Charge=             -0.0000 electrons
 Dipole moment (field-independent basis, Debye):
    X=              0.0000    Y=              0.0000    Z=              0.0000  Tot=              0.0000
 Quadrupole moment (field-independent basis, Debye-Ang):
   XX=            -31.4009   YY=            -31.4009   ZZ=            -38.5992
   XY=              0.0000   XZ=              0.0000   YZ=              0.0000
 Traceless Quadrupole moment (field-independent basis, Debye-Ang):
   XX=              2.3994   YY=              2.3994   ZZ=             -4.7989
   XY=              0.0000   XZ=              0.0000   YZ=              0.0000
 Octapole moment (field-independent basis, Debye-Ang**2):
  XXX=              0.0000  YYY=              0.0000  ZZZ=             -0.0000  XYY=              0.0000
  XXY=             -0.0000  XXZ=              0.0000  XZZ=             -0.0000  YZZ=              0.0000
  YYZ=              0.0000  XYZ=              0.0000
 Hexadecapole moment (field-independent basis, Debye-Ang**3):
 XXXX=           -270.1340 YYYY=           -270.1340 ZZZZ=            -40.0504 XXXY=              0.0000
 XXXZ=              0.0000 YYYX=              0.0000 YYYZ=             -0.0000 ZZZX=             -0.0000
 ZZZY=             -0.0000 XXYY=            -90.0447 XXZZ=            -60.3631 YYZZ=            -60.3631
 XXYZ=              0.0000 YYXZ=              0.0000 ZZXY=              0.0000
 N-N= 2.031901972085D+02 E-N=-9.437197672232D+02  KE= 2.299280615950D+02
 Symmetry AG   KE= 7.406915115023D+01
 Symmetry B1G  KE= 3.747559366413D+01
 Symmetry B2G  KE= 2.236836435135D+00
 Symmetry B3G  KE= 2.236836435135D+00
 Symmetry AU   KE=-2.897227660818D-17
 Symmetry B1U  KE= 1.865725793173D+00
 Symmetry B2U  KE= 7.176999329372D+01
 Symmetry B3U  KE= 4.027392482347D+01
 Leave Link  601 at Sun Apr 14 12:59:11 2024, MaxMem=  1073741824 cpu:               0.1 elap:               0.0
 (Enter /usr/local/g16/l9999.exe)
 Electronic transition elements 
                 1             2             3             4             5 
      1  -0.232109D+03 -0.232073D+03 -0.232073D+03 -0.232057D+03 -0.232045D+03
      2   0.000000D+00  0.000000D+00  0.000000D+00  0.000000D+00  0.000000D+00
      3   0.000000D+00  0.000000D+00  0.000000D+00  0.000000D+00  0.000000D+00
      4   0.000000D+00  0.000000D+00  0.000000D+00  0.000000D+00  0.000000D+00
      5   0.000000D+00  0.000000D+00  0.000000D+00  0.000000D+00  0.000000D+00
      6   0.000000D+00  0.000000D+00  0.000000D+00  0.000000D+00  0.000000D+00
      7   0.000000D+00  0.000000D+00  0.000000D+00  0.000000D+00  0.000000D+00
      8   0.000000D+00  0.000000D+00  0.000000D+00  0.000000D+00  0.000000D+00
      9   0.000000D+00  0.000000D+00  0.000000D+00  0.000000D+00  0.000000D+00
     10   0.000000D+00  0.000000D+00  0.000000D+00  0.000000D+00  0.000000D+00
     11   0.000000D+00  0.000000D+00  0.000000D+00  0.000000D+00  0.000000D+00
     12   0.000000D+00  0.000000D+00  0.000000D+00  0.000000D+00  0.000000D+00
     13   0.000000D+00  0.000000D+00  0.000000D+00  0.000000D+00  0.000000D+00
     14   0.000000D+00  0.000000D+00  0.000000D+00  0.000000D+00  0.000000D+00
     15   0.000000D+00  0.000000D+00  0.000000D+00  0.000000D+00  0.000000D+00
     16   0.000000D+00  0.000000D+00  0.000000D+00  0.000000D+00  0.000000D+00
                 6             7             8             9            10 
      1  -0.232017D+03 -0.231976D+03 -0.231976D+03 -0.231968D+03 -0.231967D+03
      2   0.000000D+00  0.000000D+00  0.000000D+00  0.000000D+00  0.000000D+00
      3   0.000000D+00  0.000000D+00  0.000000D+00  0.000000D+00  0.000000D+00
      4   0.000000D+00  0.000000D+00  0.000000D+00  0.000000D+00  0.000000D+00
      5   0.000000D+00  0.000000D+00  0.000000D+00  0.000000D+00  0.000000D+00
      6   0.000000D+00  0.000000D+00  0.000000D+00  0.000000D+00  0.000000D+00
      7   0.000000D+00  0.000000D+00  0.000000D+00  0.000000D+00  0.000000D+00
      8   0.000000D+00  0.000000D+00  0.000000D+00  0.000000D+00  0.000000D+00
      9   0.000000D+00  0.000000D+00  0.000000D+00  0.000000D+00  0.000000D+00
     10   0.000000D+00  0.000000D+00  0.000000D+00  0.000000D+00  0.000000D+00
     11   0.000000D+00  0.000000D+00  0.000000D+00  0.000000D+00  0.000000D+00
     12   0.000000D+00  0.000000D+00  0.000000D+00  0.000000D+00  0.000000D+00
     13   0.000000D+00  0.000000D+00  0.000000D+00  0.000000D+00  0.000000D+00
     14   0.000000D+00  0.000000D+00  0.000000D+00  0.000000D+00  0.000000D+00
     15   0.000000D+00  0.000000D+00  0.000000D+00  0.000000D+00  0.000000D+00
     16   0.000000D+00  0.000000D+00  0.000000D+00  0.000000D+00  0.000000D+00
                11            12            13            14            15 
      1  -0.231967D+03 -0.231967D+03 -0.231959D+03 -0.231955D+03 -0.231955D+03
      2   0.000000D+00  0.000000D+00  0.000000D+00  0.000000D+00  0.000000D+00
      3   0.000000D+00  0.000000D+00  0.000000D+00 -0.138112D-04  0.000000D+00
      4   0.000000D+00  0.000000D+00  0.000000D+00  0.000000D+00  0.000000D+00
      5   0.000000D+00  0.000000D+00  0.000000D+00  0.000000D+00  0.000000D+00
      6   0.000000D+00  0.000000D+00  0.000000D+00 -0.147261D-04  0.000000D+00
      7   0.000000D+00  0.000000D+00  0.000000D+00  0.000000D+00  0.000000D+00
      8   0.000000D+00  0.000000D+00  0.000000D+00  0.000000D+00  0.000000D+00
      9   0.000000D+00  0.000000D+00  0.000000D+00  0.000000D+00  0.000000D+00
     10   0.000000D+00  0.000000D+00  0.000000D+00  0.000000D+00  0.000000D+00
     11   0.000000D+00  0.000000D+00  0.000000D+00  0.000000D+00  0.000000D+00
     12   0.000000D+00  0.000000D+00  0.000000D+00  0.000000D+00  0.000000D+00
     13   0.000000D+00  0.000000D+00  0.000000D+00  0.000000D+00  0.000000D+00
     14   0.000000D+00  0.000000D+00  0.000000D+00  0.000000D+00  0.000000D+00
     15   0.000000D+00  0.000000D+00  0.000000D+00  0.000000D+00  0.000000D+00
     16   0.000000D+00  0.000000D+00  0.000000D+00  0.000000D+00  0.000000D+00
                16            17            18            19            20 
      1  -0.231955D+03 -0.231952D+03 -0.231952D+03 -0.231930D+03 -0.231930D+03
      2   0.000000D+00  0.000000D+00  0.000000D+00  0.201752D+01 -0.116482D+01
      3  -0.168581D+00  0.000000D+00  0.000000D+00  0.000000D+00  0.000000D+00
      4   0.000000D+00  0.000000D+00  0.000000D+00  0.116482D+01  0.201752D+01
      5   0.000000D+00  0.000000D+00  0.000000D+00 -0.637278D+00  0.367933D+00
      6   0.863021D-02  0.000000D+00  0.000000D+00  0.000000D+00  0.000000D+00
      7   0.000000D+00  0.000000D+00  0.000000D+00 -0.367933D+00 -0.637278D+00
      8   0.000000D+00  0.296874D+00 -0.171400D+00  0.000000D+00  0.000000D+00
      9   0.000000D+00  0.000000D+00  0.000000D+00  0.000000D+00  0.000000D+00
     10   0.000000D+00  0.171401D+00  0.296873D+00  0.000000D+00  0.000000D+00
     11   0.000000D+00  0.000000D+00  0.000000D+00  0.000000D+00  0.000000D+00
     12   0.000000D+00  0.000000D+00  0.000000D+00  0.000000D+00  0.000000D+00
     13   0.000000D+00  0.000000D+00  0.000000D+00  0.000000D+00  0.000000D+00
     14   0.000000D+00  0.642796D-01  0.111335D+00  0.000000D+00  0.000000D+00
     15   0.000000D+00  0.000000D+00  0.000000D+00  0.000000D+00  0.000000D+00
     16   0.000000D+00 -0.111336D+00  0.642795D-01  0.000000D+00  0.000000D+00
 Unable to Open any file for archive entry.
 1\1\GINC-WEBMO\SP\RB3LYP TD-FC\Gen\C6H6\CONNOR\14-Apr-2024\0\\#p td=(n
 states=10,50-50) B3LYP/chkbasis geom=allcheck\\opt\\0,1\C,0,-0.0469787
 826,0.,-0.0271232128\C,0,-0.0469787826,0.,1.3695468388\C,0,1.162572962
 8,0.,2.0678818646\C,0,2.3721247081,0.,1.3695468388\C,0,2.3721247081,0.
 ,-0.0271232128\C,0,1.1625729628,0.,-0.7254582386\H,0,1.1625729628,0.,-
 1.8121098888\H,0,3.3131926423,0.,-0.5704490379\H,0,3.3131926423,0.,1.9
 128726639\H,0,1.1625729628,0.,3.1545335148\H,0,-0.9880467167,0.,1.9128
 726639\H,0,-0.9880467167,0.,-0.5704490379\\Version=ES64L-G16RevC.01\St
 ate=1-A1G\HF=-232.2486479\RMSD=5.674e-09\PG=D06H [3C2'(H1C1.C1H1)]\\@
 The archive entry for this job was punched.


 NOTHING WILL BE ATTEMPTED IF ALL POSSIBLE OBJECTIONS
 MUST FIRST BE OVERCOME.

                               -- THE GOLDEN PRINCIPLE,
                    PAUL DICKSON'S "THE OFFICIAL RULES"
 Job cpu time:       0 days  0 hours  2 minutes  1.8 seconds.
 Elapsed time:       0 days  0 hours  1 minutes  1.0 seconds.
 File lengths (MBytes):  RWF=    307 Int=      0 D2E=      0 Chk=     12 Scr=      1
 Normal termination of Gaussian 16 at Sun Apr 14 12:59:11 2024.
